                         Program Version 5.0.4 -  RELEASE  -
|  1> !SP HF CPCM(water)
|  2>
|  3> *xyz -1 1
|  4> S           -4.92947052524758       -3.62590395691130        0.85569700011461
|  5> H           -6.03454947475242       -4.31249804308870        1.13492499988539
|  6> *
|  7>
|  8>                          ****END OF INPUT****

CARTESIAN COORDINATES (ANGSTROEM)
---------------------------------
  S     -4.929471   -3.625904    0.855697
  H     -6.034549   -4.312498    1.134925

 Total Charge           Charge          ....   -1
 Multiplicity           Mult            ....    1
 Number of Electrons    NEL             ....   18
 Basis Dimension        Dim             ....   23

ORBITAL ENERGIES
----------------

  NO   OCC          E(Eh)            E(eV)
   0   2.0000     -91.783592     -2497.5585
   1   2.0000      -8.816086      -239.8979
   2   2.0000      -6.505790      -177.0315
   3   2.0000      -6.502486      -176.9416
   4   2.0000      -6.502486      -176.9416
   5   2.0000      -0.820087       -22.3157
   6   2.0000      -0.431102       -11.7309
   7   2.0000      -0.279681        -7.6105
   8   2.0000      -0.279677        -7.6104
   9   0.0000       0.242274         6.5926
  10   0.0000       0.565761        15.3951
  11   0.0000       0.658025        17.9058
  12   0.0000       0.974199        26.5093
  13   0.0000       0.974205        26.5095

MULLIKEN ATOMIC CHARGES
-----------------------
   0 S :   -0.964192
   1 H :   -0.035808
Sum of atomic charges:   -1.0000000

LOEWDIN ATOMIC CHARGES
----------------------
   0 S :   -0.885796
   1 H :   -0.114204

  Mayer bond orders larger than 0.100000
B(  0-S ,  1-H ) :   0.9664

FINAL SINGLE POINT ENERGY      -398.087922977755

DIPOLE MOMENT
-------------
                                X             Y             Z
Electronic contribution:      0.72371       0.44979      -0.18283
Nuclear contribution   :     -1.00613      -0.62512       0.25423
                        -----------------------------------------
Total Dipole Moment    :     -0.28242      -0.17532       0.07139
                        -----------------------------------------
Magnitude (a.u.)       :      0.33999
Magnitude (Debye)      :      0.86419

Rotational constants in cm-1:     0.000000     9.742388     9.742388
Rotational constants in MHz :     0.000000 292069.444628 292069.444628

                             ****ORCA TERMINATED NORMALLY****
TOTAL RUN TIME: 0 days 0 hours 0 minutes 3 seconds 137 msec
