   * xtb version 6.7.1 (edcfbbe) compiled by 'albert@albert-system' on 2024-07-22

   ID    Z sym.   atoms
    1    6 C      1, 2, 6
    2    8 O      3
    3    1 H      4, 5, 7-11

          program call               : xtb xyz.xyz --charge -1 --alpb water --ohess
      * Solvation model:               ALPB
        Solvent                        water
        Solvent mass                       1.8000E+01 g/mol
          :  Hamiltonian                  GFN2-xTB          :
 * total energy  :   -14.3185345 Eh     change       -0.4545342E-10 Eh
 * total energy  :   -14.3205763 Eh     change       -0.2041774E-02 Eh
 * total energy  :   -14.3207142 Eh     change       -0.1378547E-03 Eh
 * total energy  :   -14.3207379 Eh     change       -0.2373500E-04 Eh
 * total energy  :   -14.3207483 Eh     change       -0.1039238E-04 Eh
 * total energy  :   -14.3207505 Eh     change       -0.2247313E-05 Eh
   *** GEOMETRY OPTIMIZATION CONVERGED AFTER 6 ITERATIONS ***

 final structure:
================
11
 xtb: 6.7.1 (edcfbbe)
C           -3.38711200857621       -4.23157597617606       -2.98283015228663
C           -4.16155002160428       -2.94863886999177       -2.57599052545218
O           -3.45254196000306       -2.04772699971212       -1.90192446334000
H           -5.08155842800791       -3.29317616415673       -1.99093369878582
H           -4.60254955669783       -2.51337516901396       -3.53699141349270
C           -4.24034352587002       -5.22272512495747       -3.75828891362251
H           -2.52602233322375       -3.91180945719888       -3.57498659062483
H           -3.00622433290131       -4.68186134437119       -2.06276339654174
H           -4.60841877834484       -4.75924980195564       -4.67126783605995
H           -3.65934403585156       -6.10488162813797       -4.01649670492952
H           -5.09612201891921       -5.52349346432821       -3.15736330486411

          :  Hamiltonian                  GFN2-xTB          :
         :: gradient norm              0.000592854169 Eh/a0 ::
         :: HOMO-LUMO gap             11.265196533991 eV    ::
         :: SCC energy               -14.467332481358 Eh    ::
         :: -> dispersion             -0.005666275446 Eh    ::
         :: -> Gsolv                  -0.123465636230 Eh    ::
         :: repulsion energy           0.146581944779 Eh    ::

    * Orbital Energies and Occupations

         #    Occupation            Energy/Eh            Energy/eV
      -------------------------------------------------------------
         1        2.0000           -0.6039841             -16.4352
         2        2.0000           -0.5949762             -16.1901
         3        2.0000           -0.5637759             -15.3411
         4        2.0000           -0.5416165             -14.7381
         5        2.0000           -0.5034911             -13.7007
         6        2.0000           -0.4785431             -13.0218
         7        2.0000           -0.4663943             -12.6912
         8        2.0000           -0.4626174             -12.5885
         9        2.0000           -0.4336241             -11.7995
        10        2.0000           -0.4242127             -11.5434
        11        2.0000           -0.4180476             -11.3757
        12        2.0000           -0.3031379              -8.2488
        13        2.0000           -0.3030625              -8.2468 (HOMO)
        14                          0.1109258               3.0184 (LUMO)
        15                          0.1197210               3.2578
        16                          0.1205843               3.2813
        17                          0.1493408               4.0638
        18                          0.1747244               4.7545
        19                          0.1968839               5.3575
        20                          0.2086600               5.6779
        21                          0.2616784               7.1206
        22                          0.2903852               7.9018
        23                          0.3467424               9.4353
      -------------------------------------------------------------
                  HL-Gap            0.4139884 Eh           11.2652 eV

     #   Z          covCN         q      C6AA      α(0)
     1   6 C        3.796    -0.066    21.771     6.644
     2   6 C        3.655     0.190    17.849     6.065
     3   8 O        0.854    -0.883    34.212     7.842
     4   1 H        0.914    -0.131     6.787     4.075
     5   1 H        0.914    -0.131     6.772     4.070
     6   6 C        3.751    -0.101    22.498     6.764
     7   1 H        0.924     0.008     2.925     2.675
     8   1 H        0.924     0.008     2.927     2.676
     9   1 H        0.925     0.029     2.595     2.519
    10   1 H        0.925     0.048     2.349     2.397
    11   1 H        0.925     0.029     2.597     2.520

Wiberg/Mayer (AO) data.
largest (>0.10) Wiberg bond orders for each atom

     #   Z sym  total        # sym  WBO       # sym  WBO       # sym  WBO
 ---------------------------------------------------------------------------
     1   6 C    3.995 --     6 C    1.022     8 H    0.981     7 H    0.981
                             2 C    0.959
     2   6 C    3.976 --     3 O    1.154     1 C    0.959     5 H    0.925
                             4 H    0.925
     3   8 O    1.309 --     2 C    1.154
     4   1 H    0.983 --     2 C    0.925
     5   1 H    0.983 --     2 C    0.925
     6   6 C    3.998 --     1 C    1.022     9 H    0.988    11 H    0.988
                            10 H    0.986
     7   1 H    1.000 --     1 C    0.981
     8   1 H    1.000 --     1 C    0.981
     9   1 H    0.999 --     6 C    0.988
    10   1 H    0.998 --     6 C    0.986
    11   1 H    0.999 --     6 C    0.988
 ---------------------------------------------------------------------------

molecular dipole:
                 x           y           z       tot (Debye)
 q only:        6.946       4.076       3.828
   full:        6.763       3.936       3.701      22.002

 projected vibrational frequencies (cm⁻¹)
eigval :       -0.00    -0.00    -0.00     0.00     0.00     0.00
eigval :      118.75   208.44   277.99   469.54   766.77   884.48
eigval :      898.50  1063.07  1097.55  1108.86  1158.68  1239.04
eigval :     1297.10  1309.06  1385.51  1390.57  1491.12  1497.65
eigval :     1504.15  1508.37  2141.09  2366.53  2943.36  2965.64
eigval :     3015.24  3016.32  3025.15

   temp. (K)  partition function   enthalpy   heat capacity  entropy
                                   cal/mol     cal/K/mol   cal/K/mol   J/K/mol
 298.15  VIB   5.94                 1451.547     10.598      8.395
         ROT  0.431E+05              888.752      2.981     24.185
         INT  0.256E+06             2340.300     13.579     32.581
         TR   0.439E+27             1481.254      4.968     38.132
         TOT                        3821.5536    18.5469    70.7129   295.8628

       T/K    H(0)-H(T)+PV         H(T)/Eh          T*S/Eh         G(T)/Eh
   ------------------------------------------------------------------------
    298.15    0.609003E-02    0.975551E-01    0.335980E-01    0.639571E-01
   ------------------------------------------------------------------------

         :::::::::::::::::::::::::::::::::::::::::::::::::::::
         ::                  THERMODYNAMIC                  ::
         :::::::::::::::::::::::::::::::::::::::::::::::::::::
         :: total free energy         -14.256793433967 Eh   ::
         ::.................................................::
         :: total energy              -14.320750536813 Eh   ::
         :: zero point energy           0.091465052233 Eh   ::
         :: G(RRHO) w/o ZPVE           -0.027507949387 Eh   ::
         :: G(RRHO) contrib.            0.063957102846 Eh   ::
         :::::::::::::::::::::::::::::::::::::::::::::::::::::

           -------------------------------------------------
          | TOTAL ENERGY              -14.320750536813 Eh   |
          | TOTAL ENTHALPY            -14.223195451271 Eh   |
          | TOTAL FREE ENERGY         -14.256793433967 Eh   |
          | GRADIENT NORM               0.000592813750 Eh/α |
          | HOMO-LUMO GAP              11.265196510778 eV   |
           -------------------------------------------------

 * finished run on 2025/10/18 at 00:47:35.964
