   * xtb version 6.7.1 (edcfbbe) compiled by 'albert@albert-system' on 2024-07-22

   ID    Z sym.   atoms
    1   17 Cl     1

          program call               : xtb xyz.xyz --charge -1 --ohess
          :  Hamiltonian                  GFN2-xTB          :

 final structure:
================
1
 xtb: 6.7.1 (edcfbbe)
Cl           0.00000000000000        0.00000000000000        0.00000000000000

          :  Hamiltonian                  GFN2-xTB          :
         :: gradient norm              0.000000000000 Eh/a0 ::
         :: HOMO-LUMO gap             14.471620634299 eV    ::
         :: SCC energy                -4.785133953761 Eh    ::
         :: -> dispersion              0.000000000000 Eh    ::
         :: repulsion energy           0.000000000000 Eh    ::

    * Orbital Energies and Occupations

         #    Occupation            Energy/Eh            Energy/eV
      -------------------------------------------------------------
         1        2.0000           -0.7654653             -20.8294
         2        2.0000           -0.1680176              -4.5720
         3        2.0000           -0.1680176              -4.5720
         4        2.0000           -0.1680176              -4.5720 (HOMO)
         5                          0.3638063               9.8997 (LUMO)
         6                          0.3638063               9.8997
         7                          0.3638063               9.8997
         8                          0.3638063               9.8997
         9                          0.3638063               9.8997
      -------------------------------------------------------------
                  HL-Gap            0.5318240 Eh           14.4717 eV

     #   Z          covCN         q      C6AA      α(0)
     1  17 Cl       0.000    -1.000   127.012    17.152

Wiberg/Mayer (AO) data.
largest (>0.10) Wiberg bond orders for each atom

     #   Z sym  total        # sym  WBO       # sym  WBO       # sym  WBO
 ---------------------------------------------------------------------------
     1  17 Cl   0.000
 ---------------------------------------------------------------------------

molecular dipole:
                 x           y           z       tot (Debye)
 q only:        0.000       0.000       0.000
   full:        0.000       0.000       0.000       0.000

   temp. (K)  partition function   enthalpy   heat capacity  entropy
                                   cal/mol     cal/K/mol   cal/K/mol   J/K/mol
 298.15  VIB   1.00                    0.000      0.000      0.000
         ROT   1.00                    0.000      0.000      0.000
         INT   1.00                    0.000      0.000      0.000
         TR   0.204E+27             1481.254      4.968     36.610
         TOT                        1481.2539     4.9681    36.6104   153.1780

       T/K    H(0)-H(T)+PV         H(T)/Eh          T*S/Eh         G(T)/Eh
   ------------------------------------------------------------------------
    298.15    0.236053E-02    0.236053E-02    0.173948E-01   -0.150343E-01
   ------------------------------------------------------------------------

         :::::::::::::::::::::::::::::::::::::::::::::::::::::
         ::                  THERMODYNAMIC                  ::
         :::::::::::::::::::::::::::::::::::::::::::::::::::::
         :: total free energy          -4.800168218137 Eh   ::
         ::.................................................::
         :: total energy               -4.785133953761 Eh   ::
         :: zero point energy           0.000000000000 Eh   ::
         :: G(RRHO) w/o ZPVE           -0.015034264376 Eh   ::
         :: G(RRHO) contrib.           -0.015034264376 Eh   ::
         :::::::::::::::::::::::::::::::::::::::::::::::::::::

           -------------------------------------------------
          | TOTAL ENERGY               -4.785133953761 Eh   |
          | TOTAL ENTHALPY             -4.782773425381 Eh   |
          | TOTAL FREE ENERGY          -4.800168218137 Eh   |
          | GRADIENT NORM               0.000000000000 Eh/α |
          | HOMO-LUMO GAP              14.471667109038 eV   |
           -------------------------------------------------

 * finished run on 2025/10/18 at 21:30:14.228
