   * xtb version 6.7.1 (edcfbbe) compiled by 'albert@albert-system' on 2024-07-22

   ID    Z sym.   atoms
    1    6 C      1, 2, 6
    2    8 O      3-5
    3    1 H      7-9

          program call               : xtb tb_lite_results_shiftn0p05_gp320_b0_rot90_solute.xyz --ohess --chrg -1
          :  Hamiltonian                  GFN2-xTB          :
 * total energy  :   -20.3642853 Eh     change       -0.3540599E-09 Eh
 * total energy  :   -20.3670695 Eh     change       -0.2784207E-02 Eh
 * total energy  :   -20.3673428 Eh     change       -0.2733044E-03 Eh
 * total energy  :   -20.3678826 Eh     change       -0.5397617E-03 Eh
 * total energy  :   -20.3680986 Eh     change       -0.2160096E-03 Eh
 * total energy  :   -20.3682548 Eh     change       -0.1562187E-03 Eh
 * total energy  :   -20.3684530 Eh     change       -0.1981810E-03 Eh
 * total energy  :   -20.3687216 Eh     change       -0.2686402E-03 Eh
 * total energy  :   -20.3690923 Eh     change       -0.3706585E-03 Eh
 * total energy  :   -20.3684351 Eh     change        0.6571771E-03 Eh
 * total energy  :   -20.3698979 Eh     change       -0.6423532E-04 Eh
 * total energy  :   -20.3699177 Eh     change       -0.1984803E-04 Eh
 * total energy  :   -20.3699264 Eh     change       -0.8704962E-05 Eh
 * total energy  :   -20.3699305 Eh     change       -0.4099079E-05 Eh
 * total energy  :   -20.3699448 Eh     change       -0.1425964E-04 Eh
 * total energy  :   -20.3699581 Eh     change       -0.1329017E-04 Eh
 * total energy  :   -20.3699678 Eh     change       -0.9709465E-05 Eh
 * total energy  :   -20.3699729 Eh     change       -0.5079422E-05 Eh
 * total energy  :   -20.3699750 Eh     change       -0.2163658E-05 Eh
   *** GEOMETRY OPTIMIZATION CONVERGED AFTER 28 ITERATIONS ***

 final structure:
================
9
 xtb: 6.7.1 (edcfbbe)
C           -5.24929592891076       -3.75790702654883        0.57449098816781
C           -6.57566979454565       -4.02709999522814        1.27169150340714
O           -7.38726349617250       -6.24664411264574        0.84309048996976
O           -6.90976221078202       -3.39845787936257        2.25876930501087
O           -8.06808249507999       -4.51270074862452       -0.42773868244622
C           -7.45046780656350       -5.06427995006865        0.49725833255882
H           -4.69010952625989       -2.96089009918658        1.06710333250778
H           -4.66778070340963       -4.67874722468183        0.57428716588142
H           -5.45816931723389       -3.48791715109385       -0.45871440442910

          :  Hamiltonian                  GFN2-xTB          :
         :: gradient norm              0.000353923159 Eh/a0 ::
         :: HOMO-LUMO gap              2.263601635078 eV    ::
         :: SCC energy               -20.538905342242 Eh    ::
         :: -> dispersion             -0.005389766768 Eh    ::
         :: repulsion energy           0.168930315387 Eh    ::

    * Orbital Energies and Occupations

         #    Occupation            Energy/Eh            Energy/eV
      -------------------------------------------------------------
         1        2.0000           -0.5425998             -14.7649
       ...           ...                  ...                  ...
         5        2.0000           -0.4353244             -11.8458
         6        2.0000           -0.3967515             -10.7962
         7        2.0000           -0.3752019             -10.2098
         8        2.0000           -0.3690087             -10.0412
         9        2.0000           -0.3613600              -9.8331
        10        2.0000           -0.3334395              -9.0734
        11        2.0000           -0.3307720              -9.0008
        12        2.0000           -0.3215647              -8.7502
        13        2.0000           -0.3083392              -8.3903
        14        2.0000           -0.2674991              -7.2790
        15        2.0000           -0.2186376              -5.9494
        16        2.0000           -0.2071446              -5.6367
        17        2.0000           -0.1688561              -4.5948 (HOMO)
        18                         -0.0856702              -2.3312 (LUMO)
        19                          0.0065961               0.1795
        20                          0.2418441               6.5809
        21                          0.2934937               7.9864
        22                          0.3265198               8.8851
        23                          0.3471745               9.4471
        24                          0.3680557              10.0153
        25                          0.5835893              15.8803
        26                          0.7513568              20.4455
        27                          0.8720520              23.7297
      -------------------------------------------------------------
                  HL-Gap            0.0831859 Eh            2.2636 eV

     #   Z          covCN         q      C6AA      α(0)
     1   6 C        3.751    -0.114    22.734     6.800
     2   6 C        2.805     0.191    23.919     8.012
     3   8 O        0.856    -0.566    25.302     6.744
     4   8 O        0.856    -0.410    21.875     6.271
     5   8 O        0.858    -0.571    25.405     6.758
     6   6 C        2.683     0.357    20.941     7.489
     7   1 H        0.924     0.024     2.668     2.554
     8   1 H        0.925     0.039     2.459     2.452
     9   1 H        0.925     0.048     2.343     2.394

Wiberg/Mayer (AO) data.
largest (>0.10) Wiberg bond orders for each atom

     #   Z sym  total        # sym  WBO       # sym  WBO       # sym  WBO
 ---------------------------------------------------------------------------
     1   6 C    3.997 --     2 C    0.986     7 H    0.986     8 H    0.970
                             9 H    0.970
     2   6 C    3.847 --     4 O    1.841     1 C    0.986     6 C    0.842
     3   8 O    1.879 --     6 C    1.545     5 O    0.243
     4   8 O    2.030 --     2 C    1.841
     5   8 O    1.889 --     6 C    1.503     3 O    0.243
     6   6 C    3.949 --     3 O    1.545     5 O    1.503     2 C    0.842
     7   1 H    0.999 --     1 C    0.986
     8   1 H    0.998 --     1 C    0.970
     9   1 H    0.998 --     1 C    0.970
 ---------------------------------------------------------------------------

molecular dipole:
                 x           y           z       tot (Debye)
 q only:       14.618       9.314      -1.468
   full:       14.849       9.424      -1.518      44.869

 projected vibrational frequencies (cm⁻¹)
eigval :       -0.00    -0.00    -0.00    -0.00     0.00     0.00
eigval :       45.47    73.96   142.25   217.01   367.15   570.71
eigval :      612.50   735.48   767.39   945.33   975.95  1114.85
eigval :     1304.80  1337.67  1465.19  1465.71  1726.13  1774.83
eigval :     2974.88  3011.06  3025.95

   temp. (K)  partition function   enthalpy   heat capacity  entropy
                                   cal/mol     cal/K/mol   cal/K/mol   J/K/mol
 298.15  VIB   77.4                 2401.284     13.631     15.726
         ROT  0.130E+06              888.752      2.981     26.377
         INT  0.100E+08             3290.036     16.612     42.103
         TR   0.786E+27             1481.254      4.968     39.287
         TOT                        4771.2900    21.5798    81.3901   340.5361

       T/K    H(0)-H(T)+PV         H(T)/Eh          T*S/Eh         G(T)/Eh
   ------------------------------------------------------------------------
    298.15    0.760353E-02    0.637701E-01    0.386711E-01    0.250991E-01
   ------------------------------------------------------------------------

         :::::::::::::::::::::::::::::::::::::::::::::::::::::
         ::                  THERMODYNAMIC                  ::
         :::::::::::::::::::::::::::::::::::::::::::::::::::::
         :: total free energy         -20.344875964698 Eh   ::
         ::.................................................::
         :: total energy              -20.369975026856 Eh   ::
         :: zero point energy           0.056166578580 Eh   ::
         :: G(RRHO) w/o ZPVE           -0.031067516422 Eh   ::
         :: G(RRHO) contrib.            0.025099062157 Eh   ::
         :::::::::::::::::::::::::::::::::::::::::::::::::::::

           -------------------------------------------------
          | TOTAL ENERGY              -20.369975026856 Eh   |
          | TOTAL ENTHALPY            -20.306204913735 Eh   |
          | TOTAL FREE ENERGY         -20.344875964698 Eh   |
          | GRADIENT NORM               0.000353951232 Eh/α |
          | HOMO-LUMO GAP               2.263604170656 eV   |
           -------------------------------------------------

 * finished run on 2025/10/18 at 03:49:53.381
normal termination of xtb
