   * xtb version 6.7.1 (edcfbbe) compiled by 'albert@albert-system' on 2024-07-22

   ID    Z sym.   atoms
    1    6 C      1, 2, 6
    2    8 O      3-5, 10
    3    1 H      7-9, 11, 12

          program call               : xtb tb_lite_results_shiftn0p1_gp320_b0_rot90_complex.xyz --ohess --chrg -1 --alpb water
      * Solvation model:               ALPB
        Solvent                        water
        Solvent mass                       1.8000E+01 g/mol
          :  Hamiltonian                  GFN2-xTB          :
 * total energy  :   -25.5573582 Eh     change       -0.1161382E-10 Eh
 * total energy  :   -25.5605149 Eh     change       -0.3156740E-02 Eh
 * total energy  :   -25.5607989 Eh     change       -0.2839111E-03 Eh
 * total energy  :   -25.5609158 Eh     change       -0.1169299E-03 Eh
 * total energy  :   -25.5610300 Eh     change       -0.1142033E-03 Eh
 * total energy  :   -25.5611452 Eh     change       -0.1152106E-03 Eh
 * total energy  :   -25.5612418 Eh     change       -0.9665191E-04 Eh
 * total energy  :   -25.5613785 Eh     change       -0.1366401E-03 Eh
 * total energy  :   -25.5615873 Eh     change       -0.2087839E-03 Eh
 * total energy  :   -25.5617622 Eh     change       -0.1748938E-03 Eh
 * total energy  :   -25.5625454 Eh     change       -0.9099439E-05 Eh
 * total energy  :   -25.5625516 Eh     change       -0.6258920E-05 Eh
 * total energy  :   -25.5625564 Eh     change       -0.4798311E-05 Eh
 * total energy  :   -25.5625613 Eh     change       -0.4878060E-05 Eh
 * total energy  :   -25.5625652 Eh     change       -0.3886920E-05 Eh
 * total energy  :   -25.5625634 Eh     change        0.1735804E-05 Eh
 * total energy  :   -25.5625707 Eh     change       -0.7292489E-05 Eh
 * total energy  :   -25.5625721 Eh     change       -0.1399414E-05 Eh
 * total energy  :   -25.5625744 Eh     change       -0.2255006E-05 Eh
   *** GEOMETRY OPTIMIZATION CONVERGED AFTER 41 ITERATIONS ***

 final structure:
================
12
 xtb: 6.7.1 (edcfbbe)
C           -5.19583894746954       -3.80786827614743        0.54328923975409
C           -6.51820611749801       -3.92768160864932        1.23786469799910
O           -7.36471037837899       -6.14622082412528        1.13667612439628
O           -6.84412704360759       -3.23447070862528        2.18552629480792
O           -8.19646281865859       -4.62588392541375       -0.27797097138497
C           -7.45091604725771       -5.00687968953642        0.65078287074333
H           -4.58863780822845       -3.03165325226003        1.00141447152666
H           -4.69677429236652       -4.77345627673958        0.59496349101284
H           -5.38381756916869       -3.58648015116321       -0.50544899778097
O           -9.60491117643313       -6.73816709068702       -1.40070183558425
H           -9.15884049720687       -5.93277291157591       -1.06956811853652
H           -9.35805753914567       -7.43010583582585       -0.77809998041162

          :  Hamiltonian                  GFN2-xTB          :
         :: gradient norm              0.000814416281 Eh/a0 ::
         :: HOMO-LUMO gap              2.710148353341 eV    ::
         :: SCC energy               -25.762916438433 Eh    ::
         :: -> dispersion             -0.006609334524 Eh    ::
         :: -> Gsolv                  -0.107574625826 Eh    ::
         :: repulsion energy           0.200342049388 Eh    ::

    * Orbital Energies and Occupations

         #    Occupation            Energy/Eh            Energy/eV
      -------------------------------------------------------------
         1        2.0000           -0.7188079             -19.5598
       ...           ...                  ...                  ...
         9        2.0000           -0.5470177             -14.8851
        10        2.0000           -0.5401580             -14.6984
        11        2.0000           -0.5364326             -14.5971
        12        2.0000           -0.5090268             -13.8513
        13        2.0000           -0.5070678             -13.7980
        14        2.0000           -0.4900964             -13.3362
        15        2.0000           -0.4797438             -13.0545
        16        2.0000           -0.4778455             -13.0028
        17        2.0000           -0.4448218             -12.1042
        18        2.0000           -0.4234730             -11.5233
        19        2.0000           -0.4197200             -11.4212
        20        2.0000           -0.4059738             -11.0471
        21        2.0000           -0.3598884              -9.7931 (HOMO)
        22                         -0.2602923              -7.0829 (LUMO)
        23                         -0.1948810              -5.3030
        24                          0.0824597               2.2438
        25                          0.1299526               3.5362
        26                          0.1574269               4.2838
        27                          0.1885270               5.1301
        28                          0.2107286               5.7342
        29                          0.2416855               6.5766
        30                          0.2848125               7.7501
        31                          0.4001624              10.8890
        32                          0.5753356              15.6557
        33                          0.6217416              16.9185
      -------------------------------------------------------------
                  HL-Gap            0.0995961 Eh            2.7101 eV

     #   Z          covCN         q      C6AA      α(0)
     1   6 C        3.754    -0.146    23.372     6.894
     2   6 C        2.808     0.206    23.637     7.965
     3   8 O        0.856    -0.608    26.307     6.877
     4   8 O        0.856    -0.430    22.284     6.329
     5   8 O        0.857    -0.617    26.542     6.907
     6   6 C        2.686     0.354    20.982     7.496
     7   1 H        0.925     0.090     1.883     2.146
     8   1 H        0.925     0.093     1.851     2.128
     9   1 H        0.925     0.093     1.854     2.129
    10   8 O        1.608    -0.681    27.199     7.039
    11   1 H        0.803     0.311     0.690     1.305
    12   1 H        0.805     0.335     0.625     1.242

Wiberg/Mayer (AO) data.
largest (>0.10) Wiberg bond orders for each atom

     #   Z sym  total        # sym  WBO       # sym  WBO       # sym  WBO
 ---------------------------------------------------------------------------
     1   6 C    3.988 --     2 C    1.020     7 H    0.978     8 H    0.950
                             9 H    0.950
     2   6 C    3.872 --     4 O    1.820     1 C    1.020     6 C    0.880
     3   8 O    1.839 --     6 C    1.519     5 O    0.227
     4   8 O    2.011 --     2 C    1.820
     5   8 O    1.849 --     6 C    1.473     3 O    0.227
     6   6 C    3.937 --     3 O    1.519     5 O    1.473     2 C    0.880
     7   1 H    0.992 --     1 C    0.978
     8   1 H    0.991 --     1 C    0.950
     9   1 H    0.991 --     1 C    0.950
    10   8 O    1.768 --    12 H    0.887    11 H    0.857
    11   1 H    0.904 --    10 O    0.857
    12   1 H    0.888 --    10 O    0.887
 ---------------------------------------------------------------------------

molecular dipole:
                 x           y           z       tot (Debye)
 q only:       15.990       9.749      -1.122
   full:       16.200       9.807      -0.971      48.197

 projected vibrational frequencies (cm⁻¹)
eigval :       -0.00    -0.00    -0.00    -0.00     0.00     0.00
eigval :       19.52    31.61    39.42   111.51   137.66   158.09
eigval :      207.18   213.96   373.13   381.58   581.55   612.26
eigval :      665.80   741.78   797.28   973.79   985.08  1146.29
eigval :     1335.36  1344.10  1424.17  1428.93  1516.69  1656.91
eigval :     1709.93  3018.91  3025.21  3040.67  3245.17  3601.47

   temp. (K)  partition function   enthalpy   heat capacity  entropy
                                   cal/mol     cal/K/mol   cal/K/mol   J/K/mol
 298.15  VIB  0.186E+05             4493.687     21.809     29.851
         ROT  0.322E+06              888.752      2.981     28.187
         INT  0.601E+10             5382.439     24.790     58.038
         TR   0.104E+28             1481.254      4.968     39.847
         TOT                        6863.6930    29.7582    97.8849   409.5503

       T/K    H(0)-H(T)+PV         H(T)/Eh          T*S/Eh         G(T)/Eh
   ------------------------------------------------------------------------
    298.15    0.109380E-01    0.895917E-01    0.465083E-01    0.430835E-01
   ------------------------------------------------------------------------

         :::::::::::::::::::::::::::::::::::::::::::::::::::::
         ::                  THERMODYNAMIC                  ::
         :::::::::::::::::::::::::::::::::::::::::::::::::::::
         :: total free energy         -25.519490913449 Eh   ::
         ::.................................................::
         :: total energy              -25.562574389104 Eh   ::
         :: zero point energy           0.078653750924 Eh   ::
         :: G(RRHO) w/o ZPVE           -0.035570275269 Eh   ::
         :: G(RRHO) contrib.            0.043083475655 Eh   ::
         :::::::::::::::::::::::::::::::::::::::::::::::::::::

           -------------------------------------------------
          | TOTAL ENERGY              -25.562574389104 Eh   |
          | TOTAL ENTHALPY            -25.472982647152 Eh   |
          | TOTAL FREE ENERGY         -25.519490913449 Eh   |
          | GRADIENT NORM               0.000814435129 Eh/α |
          | HOMO-LUMO GAP               2.710148881989 eV   |
           -------------------------------------------------

 * finished run on 2025/10/18 at 03:50:02.123
normal termination of xtb
