   * xtb version 6.7.1 (edcfbbe) compiled by 'albert@albert-system' on 2024-07-22

   ID    Z sym.   atoms
    1    6 C      1, 2, 6
    2    8 O      3-5, 10
    3    1 H      7-9, 11, 12

          program call               : xtb tb_lite_results_original_gp320_b0_rot90_complex.xyz --ohess --chrg -1 --alpb water
      * Solvation model:               ALPB
        Solvent                        water
        Solvent mass                       1.8000E+01 g/mol
          :  Hamiltonian                  GFN2-xTB          :
 * total energy  :   -25.5579209 Eh     change       -0.7769785E-11 Eh
 * total energy  :   -25.5605140 Eh     change       -0.2593058E-02 Eh
 * total energy  :   -25.5607379 Eh     change       -0.2238720E-03 Eh
 * total energy  :   -25.5608966 Eh     change       -0.1587762E-03 Eh
 * total energy  :   -25.5610223 Eh     change       -0.1256996E-03 Eh
 * total energy  :   -25.5611565 Eh     change       -0.1341461E-03 Eh
 * total energy  :   -25.5612397 Eh     change       -0.8317779E-04 Eh
 * total energy  :   -25.5613707 Eh     change       -0.1310167E-03 Eh
 * total energy  :   -25.5615179 Eh     change       -0.1472145E-03 Eh
 * total energy  :   -25.5616568 Eh     change       -0.1389029E-03 Eh
 * total energy  :   -25.5625120 Eh     change       -0.2538444E-04 Eh
 * total energy  :   -25.5625283 Eh     change       -0.1628994E-04 Eh
 * total energy  :   -25.5625394 Eh     change       -0.1117825E-04 Eh
 * total energy  :   -25.5625463 Eh     change       -0.6808664E-05 Eh
 * total energy  :   -25.5625544 Eh     change       -0.8193369E-05 Eh
 * total energy  :   -25.5625575 Eh     change       -0.3034331E-05 Eh
 * total energy  :   -25.5625633 Eh     change       -0.5779896E-05 Eh
 * total energy  :   -25.5625664 Eh     change       -0.3120370E-05 Eh
 * total energy  :   -25.5625695 Eh     change       -0.3143552E-05 Eh
   *** GEOMETRY OPTIMIZATION CONVERGED AFTER 38 ITERATIONS ***

 final structure:
================
12
 xtb: 6.7.1 (edcfbbe)
C           -5.22219794600671       -3.81459302373961        0.52079711393980
C           -6.53825340822499       -3.93127517946640        1.22812748550571
O           -7.39228170059920       -6.14934137887935        1.17368339745814
O           -6.86074945654427       -3.22558338113146        2.16812087005110
O           -8.20631298672956       -4.65870184178838       -0.28325465382603
C           -7.47061252156619       -5.02108016033775        0.66059127695655
H           -4.60894880702552       -3.03941214010377        0.97250390561277
H           -4.72427891012563       -4.78112000550026        0.56590096501343
H           -5.42215426328134       -3.59131323766715       -0.52547321263027
O           -9.60186997104916       -6.78597323185809       -1.39552303536700
H           -9.15776197203661       -5.97795502908600       -1.06745563318989
H           -9.36300460674598       -7.47241825570437       -0.76407838053195

          :  Hamiltonian                  GFN2-xTB          :
         :: gradient norm              0.000609883830 Eh/a0 ::
         :: HOMO-LUMO gap              2.707331962416 eV    ::
         :: SCC energy               -25.762739523503 Eh    ::
         :: -> dispersion             -0.006606779571 Eh    ::
         :: -> Gsolv                  -0.107599765468 Eh    ::
         :: repulsion energy           0.200169998873 Eh    ::

    * Orbital Energies and Occupations

         #    Occupation            Energy/Eh            Energy/eV
      -------------------------------------------------------------
         1        2.0000           -0.7187281             -19.5576
       ...           ...                  ...                  ...
         9        2.0000           -0.5470061             -14.8848
        10        2.0000           -0.5401314             -14.6977
        11        2.0000           -0.5364411             -14.5973
        12        2.0000           -0.5090423             -13.8517
        13        2.0000           -0.5070324             -13.7971
        14        2.0000           -0.4900485             -13.3349
        15        2.0000           -0.4797375             -13.0543
        16        2.0000           -0.4778421             -13.0027
        17        2.0000           -0.4448124             -12.1040
        18        2.0000           -0.4235054             -11.5242
        19        2.0000           -0.4197379             -11.4216
        20        2.0000           -0.4060356             -11.0488
        21        2.0000           -0.3598896              -9.7931 (HOMO)
        22                         -0.2603970              -7.0858 (LUMO)
        23                         -0.1949245              -5.3042
        24                          0.0825273               2.2457
        25                          0.1297982               3.5320
        26                          0.1572494               4.2790
        27                          0.1883113               5.1242
        28                          0.2107716               5.7354
        29                          0.2413548               6.5676
        30                          0.2848244               7.7505
        31                          0.3994577              10.8698
        32                          0.5743140              15.6279
        33                          0.6219235              16.9234
      -------------------------------------------------------------
                  HL-Gap            0.0994926 Eh            2.7073 eV

     #   Z          covCN         q      C6AA      α(0)
     1   6 C        3.754    -0.146    23.370     6.893
     2   6 C        2.808     0.206    23.638     7.965
     3   8 O        0.856    -0.608    26.314     6.878
     4   8 O        0.856    -0.430    22.288     6.330
     5   8 O        0.857    -0.617    26.533     6.906
     6   6 C        2.686     0.354    20.982     7.496
     7   1 H        0.925     0.090     1.883     2.146
     8   1 H        0.925     0.092     1.859     2.132
     9   1 H        0.925     0.093     1.846     2.125
    10   8 O        1.608    -0.681    27.203     7.039
    11   1 H        0.803     0.311     0.690     1.305
    12   1 H        0.805     0.335     0.624     1.241

Wiberg/Mayer (AO) data.
largest (>0.10) Wiberg bond orders for each atom

     #   Z sym  total        # sym  WBO       # sym  WBO       # sym  WBO
 ---------------------------------------------------------------------------
     1   6 C    3.988 --     2 C    1.020     7 H    0.978     8 H    0.951
                             9 H    0.949
     2   6 C    3.872 --     4 O    1.820     1 C    1.020     6 C    0.880
     3   8 O    1.839 --     6 C    1.519     5 O    0.227
     4   8 O    2.011 --     2 C    1.820
     5   8 O    1.850 --     6 C    1.473     3 O    0.227
     6   6 C    3.937 --     3 O    1.519     5 O    1.473     2 C    0.880
     7   1 H    0.992 --     1 C    0.978
     8   1 H    0.991 --     1 C    0.951
     9   1 H    0.991 --     1 C    0.949
    10   8 O    1.768 --    12 H    0.887    11 H    0.857
    11   1 H    0.904 --    10 O    0.857
    12   1 H    0.888 --    10 O    0.887
 ---------------------------------------------------------------------------

molecular dipole:
                 x           y           z       tot (Debye)
 q only:       16.010       9.781      -1.148
   full:       16.217       9.840      -0.997      48.281

 projected vibrational frequencies (cm⁻¹)
eigval :       -0.00    -0.00    -0.00     0.00     0.00     0.00
eigval :       19.06    34.36    40.30   110.25   137.62   148.06
eigval :      207.81   214.09   373.94   381.70   581.35   613.00
eigval :      666.29   741.77   797.17   973.45   985.24  1145.90
eigval :     1334.97  1343.43  1424.12  1428.88  1516.27  1656.16
eigval :     1708.27  3018.11  3024.58  3040.60  3241.88  3603.96

   temp. (K)  partition function   enthalpy   heat capacity  entropy
                                   cal/mol     cal/K/mol   cal/K/mol   J/K/mol
 298.15  VIB  0.182E+05             4500.270     21.873     29.982
         ROT  0.323E+06              888.752      2.981     28.191
         INT  0.588E+10             5389.023     24.854     58.173
         TR   0.104E+28             1481.254      4.968     39.847
         TOT                        6870.2765    29.8222    98.0201   410.1162

       T/K    H(0)-H(T)+PV         H(T)/Eh          T*S/Eh         G(T)/Eh
   ------------------------------------------------------------------------
    298.15    0.109485E-01    0.895740E-01    0.465725E-01    0.430015E-01
   ------------------------------------------------------------------------

         :::::::::::::::::::::::::::::::::::::::::::::::::::::
         ::                  THERMODYNAMIC                  ::
         :::::::::::::::::::::::::::::::::::::::::::::::::::::
         :: total free energy         -25.519568054355 Eh   ::
         ::.................................................::
         :: total energy              -25.562569524177 Eh   ::
         :: zero point energy           0.078625511209 Eh   ::
         :: G(RRHO) w/o ZPVE           -0.035624041387 Eh   ::
         :: G(RRHO) contrib.            0.043001469822 Eh   ::
         :::::::::::::::::::::::::::::::::::::::::::::::::::::

           -------------------------------------------------
          | TOTAL ENERGY              -25.562569524177 Eh   |
          | TOTAL ENTHALPY            -25.472995530476 Eh   |
          | TOTAL FREE ENERGY         -25.519568054355 Eh   |
          | GRADIENT NORM               0.000609790041 Eh/α |
          | HOMO-LUMO GAP               2.707330584091 eV   |
           -------------------------------------------------

 * finished run on 2025/10/18 at 03:50:00.299
normal termination of xtb
