   * xtb version 6.7.1 (edcfbbe) compiled by 'albert@albert-system' on 2024-07-22

   ID    Z sym.   atoms
    1    6 C      1, 2, 6
    2    8 O      3-5, 10
    3    1 H      7-9, 11, 12

          program call               : xtb tb_lite_results_shiftn0p05_gp338_b0_rot90_complex.xyz --ohess --chrg -1 --alpb water
      * Solvation model:               ALPB
        Solvent                        water
        Solvent mass                       1.8000E+01 g/mol
          :  Hamiltonian                  GFN2-xTB          :
 * total energy  :   -25.5581973 Eh     change       -0.1214318E-10 Eh
 * total energy  :   -25.5607351 Eh     change       -0.2537802E-02 Eh
 * total energy  :   -25.5609845 Eh     change       -0.2493689E-03 Eh
 * total energy  :   -25.5610552 Eh     change       -0.7070307E-04 Eh
 * total energy  :   -25.5611596 Eh     change       -0.1043932E-03 Eh
 * total energy  :   -25.5612616 Eh     change       -0.1019868E-03 Eh
 * total energy  :   -25.5613699 Eh     change       -0.1083331E-03 Eh
 * total energy  :   -25.5614968 Eh     change       -0.1268927E-03 Eh
 * total energy  :   -25.5616493 Eh     change       -0.1524521E-03 Eh
 * total energy  :   -25.5617672 Eh     change       -0.1179587E-03 Eh
 * total energy  :   -25.5624400 Eh     change       -0.1484794E-04 Eh
 * total energy  :   -25.5624479 Eh     change       -0.7933990E-05 Eh
 * total energy  :   -25.5624596 Eh     change       -0.1169800E-04 Eh
 * total energy  :   -25.5624787 Eh     change       -0.1910953E-04 Eh
 * total energy  :   -25.5624943 Eh     change       -0.1562469E-04 Eh
 * total energy  :   -25.5625098 Eh     change       -0.1550053E-04 Eh
 * total energy  :   -25.5625296 Eh     change       -0.1974694E-04 Eh
 * total energy  :   -25.5625353 Eh     change       -0.5734868E-05 Eh
 * total energy  :   -25.5625377 Eh     change       -0.2386747E-05 Eh
   *** GEOMETRY OPTIMIZATION CONVERGED AFTER 30 ITERATIONS ***

 final structure:
================
12
 xtb: 6.7.1 (edcfbbe)
C           -5.21686200614474       -3.73660165141433        0.63370686680812
C           -6.60886346347877       -3.93634297187717        1.15270237280504
O           -7.35254132817690       -6.19825970162794        1.15763286057062
O           -7.12516634775053       -3.21455071467900        1.98855305563490
O           -7.87776858416343       -4.90231517214359       -0.58991951034201
C           -7.35471117483668       -5.13114066939179        0.52294518699296
H           -4.74604385736123       -2.88089891123846        1.10999297262857
H           -4.64843437784297       -4.64603457810268        0.81706553302745
H           -5.28041170443445       -3.59571212819474       -0.44364693747255
O           -8.86562888196216       -7.16224508005032       -1.86156722568370
H           -8.55033538397329       -6.31584774448229       -1.48473480307978
H           -8.80076587971580       -7.79584521449977       -1.13881369112811

          :  Hamiltonian                  GFN2-xTB          :
         :: gradient norm              0.000925301831 Eh/a0 ::
         :: HOMO-LUMO gap              2.692536473609 eV    ::
         :: SCC energy               -25.762498839169 Eh    ::
         :: -> dispersion             -0.006589349209 Eh    ::
         :: -> Gsolv                  -0.107812545061 Eh    ::
         :: repulsion energy           0.199961137535 Eh    ::

    * Orbital Energies and Occupations

         #    Occupation            Energy/Eh            Energy/eV
      -------------------------------------------------------------
         1        2.0000           -0.7185831             -19.5536
       ...           ...                  ...                  ...
         9        2.0000           -0.5471315             -14.8882
        10        2.0000           -0.5398510             -14.6901
        11        2.0000           -0.5363399             -14.5946
        12        2.0000           -0.5091875             -13.8557
        13        2.0000           -0.5067249             -13.7887
        14        2.0000           -0.4897569             -13.3270
        15        2.0000           -0.4796265             -13.0513
        16        2.0000           -0.4776283             -12.9969
        17        2.0000           -0.4447676             -12.1027
        18        2.0000           -0.4235079             -11.5242
        19        2.0000           -0.4196195             -11.4184
        20        2.0000           -0.4059069             -11.0453
        21        2.0000           -0.3597966              -9.7906 (HOMO)
        22                         -0.2608477              -7.0980 (LUMO)
        23                         -0.1942321              -5.2853
        24                          0.0821425               2.2352
        25                          0.1288126               3.5052
        26                          0.1576771               4.2906
        27                          0.1881161               5.1189
        28                          0.2109978               5.7415
        29                          0.2408007               6.5525
        30                          0.2850240               7.7559
        31                          0.3993329              10.8664
        32                          0.5709598              15.5366
        33                          0.6256784              17.0256
      -------------------------------------------------------------
                  HL-Gap            0.0989489 Eh            2.6925 eV

     #   Z          covCN         q      C6AA      α(0)
     1   6 C        3.754    -0.146    23.369     6.893
     2   6 C        2.808     0.205    23.643     7.966
     3   8 O        0.856    -0.608    26.314     6.878
     4   8 O        0.856    -0.430    22.287     6.329
     5   8 O        0.857    -0.617    26.532     6.906
     6   6 C        2.686     0.354    20.984     7.497
     7   1 H        0.925     0.089     1.884     2.147
     8   1 H        0.925     0.092     1.862     2.134
     9   1 H        0.925     0.094     1.843     2.123
    10   8 O        1.608    -0.682    27.226     7.042
    11   1 H        0.803     0.311     0.690     1.305
    12   1 H        0.805     0.336     0.621     1.238

Wiberg/Mayer (AO) data.
largest (>0.10) Wiberg bond orders for each atom

     #   Z sym  total        # sym  WBO       # sym  WBO       # sym  WBO
 ---------------------------------------------------------------------------
     1   6 C    3.988 --     2 C    1.020     7 H    0.978     8 H    0.951
                             9 H    0.949
     2   6 C    3.872 --     4 O    1.820     1 C    1.020     6 C    0.880
     3   8 O    1.839 --     6 C    1.521     5 O    0.227
     4   8 O    2.011 --     2 C    1.820
     5   8 O    1.849 --     6 C    1.471     3 O    0.227
     6   6 C    3.937 --     3 O    1.521     5 O    1.471     2 C    0.880
     7   1 H    0.992 --     1 C    0.978
     8   1 H    0.992 --     1 C    0.951
     9   1 H    0.991 --     1 C    0.949
    10   8 O    1.767 --    12 H    0.886    11 H    0.857
    11   1 H    0.903 --    10 O    0.857
    12   1 H    0.887 --    10 O    0.886
 ---------------------------------------------------------------------------

molecular dipole:
                 x           y           z       tot (Debye)
 q only:       15.624      10.143      -0.581
   full:       15.775      10.224      -0.394      47.792

 projected vibrational frequencies (cm⁻¹)
eigval :       -0.00    -0.00    -0.00    -0.00     0.00     0.00
eigval :      -35.76    16.01    39.11   110.84   118.06   142.21
eigval :      210.52   215.73   360.20   381.74   581.58   612.53
eigval :      659.11   741.40   796.56   972.88   984.67  1145.34
eigval :     1334.82  1342.01  1423.73  1428.64  1508.47  1656.31
eigval :     1707.10  3018.68  3025.38  3041.46  3242.49  3595.10

   temp. (K)  partition function   enthalpy   heat capacity  entropy
                                   cal/mol     cal/K/mol   cal/K/mol   J/K/mol
 298.15  VIB  0.387E+04             3996.936     20.718     26.305
         ROT  0.327E+06              888.752      2.981     28.214
         INT  0.127E+10             4885.689     23.699     54.519
         TR   0.104E+28             1481.254      4.968     39.847
         TOT                        6366.9425    28.6674    94.3661   394.8276

       T/K    H(0)-H(T)+PV         H(T)/Eh          T*S/Eh         G(T)/Eh
   ------------------------------------------------------------------------
    298.15    0.101464E-01    0.885442E-01    0.448364E-01    0.437078E-01
   ------------------------------------------------------------------------

         :::::::::::::::::::::::::::::::::::::::::::::::::::::
         ::                  THERMODYNAMIC                  ::
         :::::::::::::::::::::::::::::::::::::::::::::::::::::
         :: total free energy         -25.518829884014 Eh   ::
         ::.................................................::
         :: total energy              -25.562537701152 Eh   ::
         :: zero point energy           0.078397805330 Eh   ::
         :: G(RRHO) w/o ZPVE           -0.034689988192 Eh   ::
         :: G(RRHO) contrib.            0.043707817138 Eh   ::
         :::::::::::::::::::::::::::::::::::::::::::::::::::::

           -------------------------------------------------
          | TOTAL ENERGY              -25.562537701152 Eh   |
          | TOTAL ENTHALPY            -25.473993527106 Eh   |
          | TOTAL FREE ENERGY         -25.518829884014 Eh   |
          | GRADIENT NORM               0.000925258963 Eh/α |
          | HOMO-LUMO GAP               2.692537035504 eV   |
           -------------------------------------------------

 * finished run on 2025/10/18 at 03:49:57.998
normal termination of xtb
