   * xtb version 6.7.1 (edcfbbe) compiled by 'albert@albert-system' on 2024-07-22

   ID    Z sym.   atoms
    1    6 C      1, 2, 6
    2    8 O      3-5, 10
    3    1 H      7-9, 11, 12

          program call               : xtb tb_lite_results_shiftn0p1_gp338_b0_rot90_complex.xyz --ohess --chrg -1 --alpb water
      * Solvation model:               ALPB
        Solvent                        water
        Solvent mass                       1.8000E+01 g/mol
          :  Hamiltonian                  GFN2-xTB          :
 * total energy  :   -25.5579251 Eh     change       -0.3559144E-09 Eh
 * total energy  :   -25.5607206 Eh     change       -0.2795498E-02 Eh
 * total energy  :   -25.5609862 Eh     change       -0.2655576E-03 Eh
 * total energy  :   -25.5610540 Eh     change       -0.6781524E-04 Eh
 * total energy  :   -25.5611560 Eh     change       -0.1020173E-03 Eh
 * total energy  :   -25.5612614 Eh     change       -0.1054167E-03 Eh
 * total energy  :   -25.5613628 Eh     change       -0.1014003E-03 Eh
 * total energy  :   -25.5614855 Eh     change       -0.1226349E-03 Eh
 * total energy  :   -25.5616550 Eh     change       -0.1695702E-03 Eh
 * total energy  :   -25.5618233 Eh     change       -0.1682927E-03 Eh
 * total energy  :   -25.5624438 Eh     change       -0.5527047E-05 Eh
 * total energy  :   -25.5624534 Eh     change       -0.9646628E-05 Eh
 * total energy  :   -25.5624744 Eh     change       -0.2092719E-04 Eh
 * total energy  :   -25.5624865 Eh     change       -0.1218403E-04 Eh
 * total energy  :   -25.5625212 Eh     change       -0.3464402E-04 Eh
 * total energy  :   -25.5625295 Eh     change       -0.8324527E-05 Eh
 * total energy  :   -25.5625356 Eh     change       -0.6095905E-05 Eh
 * total energy  :   -25.5625389 Eh     change       -0.3285824E-05 Eh
 * total energy  :   -25.5625426 Eh     change       -0.3695990E-05 Eh
   *** GEOMETRY OPTIMIZATION CONVERGED AFTER 31 ITERATIONS ***

 final structure:
================
12
 xtb: 6.7.1 (edcfbbe)
C           -5.21836033549818       -3.71831540881887        0.65255187140561
C           -6.61802485242297       -3.91825747768107        1.14918210900353
O           -7.33656381769867       -6.18575451350944        1.15024806429871
O           -7.14724401764253       -3.19510239898864        1.97535918595744
O           -7.88163971932536       -4.89503863904143       -0.59460699273362
C           -7.35292226450288       -5.11840560753412        0.51652004277043
H           -4.75630516041395       -2.86290869337366        1.13781572948879
H           -4.65327470944686       -4.62785283931253        0.84464612272726
H           -5.26280502561993       -3.57660535246088       -0.42559172533900
O           -8.83573727625873       -7.17212222623546       -1.86162622988818
H           -8.53245616088501       -6.32084974021085       -1.48662668027957
H           -8.77284622918328       -7.80026614333136       -1.13460139570749

          :  Hamiltonian                  GFN2-xTB          :
         :: gradient norm              0.000560816783 Eh/a0 ::
         :: HOMO-LUMO gap              2.697381650110 eV    ::
         :: SCC energy               -25.762825916170 Eh    ::
         :: -> dispersion             -0.006590118900 Eh    ::
         :: -> Gsolv                  -0.107833008062 Eh    ::
         :: repulsion energy           0.200283333507 Eh    ::

    * Orbital Energies and Occupations

         #    Occupation            Energy/Eh            Energy/eV
      -------------------------------------------------------------
         1        2.0000           -0.7186156             -19.5545
       ...           ...                  ...                  ...
         9        2.0000           -0.5470993             -14.8873
        10        2.0000           -0.5398760             -14.6908
        11        2.0000           -0.5364297             -14.5970
        12        2.0000           -0.5091272             -13.8541
        13        2.0000           -0.5067829             -13.7903
        14        2.0000           -0.4897701             -13.3273
        15        2.0000           -0.4797198             -13.0538
        16        2.0000           -0.4776351             -12.9971
        17        2.0000           -0.4447638             -12.1026
        18        2.0000           -0.4235324             -11.5249
        19        2.0000           -0.4196198             -11.4184
        20        2.0000           -0.4058937             -11.0449
        21        2.0000           -0.3597338              -9.7889 (HOMO)
        22                         -0.2606068              -7.0915 (LUMO)
        23                         -0.1943210              -5.2877
        24                          0.0822473               2.2381
        25                          0.1294876               3.5235
        26                          0.1577696               4.2931
        27                          0.1884195               5.1272
        28                          0.2110084               5.7418
        29                          0.2415898               6.5740
        30                          0.2856741               7.7736
        31                          0.3998834              10.8814
        32                          0.5723368              15.5741
        33                          0.6252208              17.0131
      -------------------------------------------------------------
                  HL-Gap            0.0991271 Eh            2.6974 eV

     #   Z          covCN         q      C6AA      α(0)
     1   6 C        3.754    -0.146    23.370     6.894
     2   6 C        2.808     0.205    23.643     7.966
     3   8 O        0.856    -0.608    26.312     6.877
     4   8 O        0.856    -0.430    22.288     6.330
     5   8 O        0.857    -0.617    26.536     6.907
     6   6 C        2.686     0.354    20.983     7.496
     7   1 H        0.925     0.089     1.884     2.146
     8   1 H        0.925     0.092     1.862     2.134
     9   1 H        0.925     0.094     1.842     2.123
    10   8 O        1.608    -0.682    27.224     7.042
    11   1 H        0.803     0.311     0.690     1.305
    12   1 H        0.805     0.336     0.621     1.238

Wiberg/Mayer (AO) data.
largest (>0.10) Wiberg bond orders for each atom

     #   Z sym  total        # sym  WBO       # sym  WBO       # sym  WBO
 ---------------------------------------------------------------------------
     1   6 C    3.988 --     2 C    1.021     7 H    0.978     8 H    0.951
                             9 H    0.949
     2   6 C    3.872 --     4 O    1.820     1 C    1.021     6 C    0.880
     3   8 O    1.840 --     6 C    1.521     5 O    0.227
     4   8 O    2.011 --     2 C    1.820
     5   8 O    1.848 --     6 C    1.472     3 O    0.227
     6   6 C    3.937 --     3 O    1.521     5 O    1.472     2 C    0.880
     7   1 H    0.992 --     1 C    0.978
     8   1 H    0.992 --     1 C    0.951
     9   1 H    0.991 --     1 C    0.949
    10   8 O    1.767 --    12 H    0.886    11 H    0.857
    11   1 H    0.904 --    10 O    0.857
    12   1 H    0.887 --    10 O    0.886
 ---------------------------------------------------------------------------

molecular dipole:
                 x           y           z       tot (Debye)
 q only:       15.616      10.131      -0.553
   full:       15.766      10.214      -0.364      47.757

 projected vibrational frequencies (cm⁻¹)
eigval :       -0.00    -0.00    -0.00     0.00     0.00     0.00
eigval :      -68.07    -8.22    34.48    86.38   112.75   137.53
eigval :      209.26   214.55   352.84   381.64   581.31   611.72
eigval :      641.69   741.00   796.56   973.29   984.18  1146.19
eigval :     1334.70  1342.81  1423.20  1428.55  1507.72  1657.41
eigval :     1708.36  3019.31  3026.26  3041.71  3246.15  3601.95

   temp. (K)  partition function   enthalpy   heat capacity  entropy
                                   cal/mol     cal/K/mol   cal/K/mol   J/K/mol
 298.15  VIB  0.109E+05             4067.919     20.638     27.616
         ROT  0.326E+06              888.752      2.981     28.211
         INT  0.356E+10             4956.672     23.619     55.827
         TR   0.104E+28             1481.254      4.968     39.847
         TOT                        6437.9257    28.5873    95.6746   400.3023

       T/K    H(0)-H(T)+PV         H(T)/Eh          T*S/Eh         G(T)/Eh
   ------------------------------------------------------------------------
    298.15    0.102595E-01    0.885185E-01    0.454581E-01    0.430604E-01
   ------------------------------------------------------------------------

         :::::::::::::::::::::::::::::::::::::::::::::::::::::
         ::                  THERMODYNAMIC                  ::
         :::::::::::::::::::::::::::::::::::::::::::::::::::::
         :: total free energy         -25.519482199731 Eh   ::
         ::.................................................::
         :: total energy              -25.562542582107 Eh   ::
         :: zero point energy           0.078258963416 Eh   ::
         :: G(RRHO) w/o ZPVE           -0.035198581039 Eh   ::
         :: G(RRHO) contrib.            0.043060382376 Eh   ::
         :::::::::::::::::::::::::::::::::::::::::::::::::::::

           -------------------------------------------------
          | TOTAL ENERGY              -25.562542582107 Eh   |
          | TOTAL ENTHALPY            -25.474024131100 Eh   |
          | TOTAL FREE ENERGY         -25.519482199731 Eh   |
          | GRADIENT NORM               0.000560825784 Eh/α |
          | HOMO-LUMO GAP               2.697384454117 eV   |
           -------------------------------------------------

 * finished run on 2025/10/18 at 03:49:55.569
normal termination of xtb
