   * xtb version 6.7.1 (edcfbbe) compiled by 'albert@albert-system' on 2024-07-22

   ID    Z sym.   atoms
    1    6 C      1, 2, 6
    2    8 O      3-5, 10
    3    1 H      7-9, 11, 12

          program call               : xtb tb_lite_results_shiftn0p05_gp320_b0_rot90_complex.xyz --ohess --chrg -1 --alpb water
      * Solvation model:               ALPB
        Solvent                        water
        Solvent mass                       1.8000E+01 g/mol
          :  Hamiltonian                  GFN2-xTB          :
 * total energy  :   -25.5577367 Eh     change       -0.9936940E-11 Eh
 * total energy  :   -25.5605510 Eh     change       -0.2814271E-02 Eh
 * total energy  :   -25.5607880 Eh     change       -0.2369634E-03 Eh
 * total energy  :   -25.5609184 Eh     change       -0.1304732E-03 Eh
 * total energy  :   -25.5610319 Eh     change       -0.1134961E-03 Eh
 * total energy  :   -25.5611582 Eh     change       -0.1262788E-03 Eh
 * total energy  :   -25.5612509 Eh     change       -0.9265292E-04 Eh
 * total energy  :   -25.5613960 Eh     change       -0.1451169E-03 Eh
 * total energy  :   -25.5616063 Eh     change       -0.2103557E-03 Eh
 * total energy  :   -25.5615452 Eh     change        0.6110174E-04 Eh
 * total energy  :   -25.5625299 Eh     change       -0.1338859E-04 Eh
 * total energy  :   -25.5625209 Eh     change        0.8989859E-05 Eh
 * total energy  :   -25.5625456 Eh     change       -0.2477564E-04 Eh
 * total energy  :   -25.5625525 Eh     change       -0.6818252E-05 Eh
 * total energy  :   -25.5625567 Eh     change       -0.4203198E-05 Eh
 * total energy  :   -25.5625628 Eh     change       -0.6166341E-05 Eh
 * total energy  :   -25.5625660 Eh     change       -0.3182207E-05 Eh
 * total energy  :   -25.5625703 Eh     change       -0.4280979E-05 Eh
 * total energy  :   -25.5625724 Eh     change       -0.2072356E-05 Eh
   *** GEOMETRY OPTIMIZATION CONVERGED AFTER 40 ITERATIONS ***

 final structure:
================
12
 xtb: 6.7.1 (edcfbbe)
C           -5.21140546180760       -3.80372605390015        0.53769828681186
C           -6.54092916300213       -3.91502801748684        1.21902245723029
O           -7.38168628513814       -6.13563954089307        1.14592252903679
O           -6.87830453166160       -3.20930091197511        2.15369641849231
O           -8.19960957348428       -4.64346146999215       -0.30687407654125
C           -7.46492451654300       -5.00549485393488        0.63819078863613
H           -4.60832201655403       -3.02399855149555        0.99446635446618
H           -4.71474350168868       -4.76929798208481        0.60385228417265
H           -5.38806472338463       -3.59232597937248       -0.51512497399433
O           -9.58163216139479       -6.79915736326730       -1.38372458382706
H           -9.14442986086716       -5.98095624609891       -1.07211359973823
H           -9.35081159715203       -7.46681673750404       -0.72867819197811

          :  Hamiltonian                  GFN2-xTB          :
         :: gradient norm              0.000860642451 Eh/a0 ::
         :: HOMO-LUMO gap              2.708871333807 eV    ::
         :: SCC energy               -25.762787382113 Eh    ::
         :: -> dispersion             -0.006614581470 Eh    ::
         :: -> Gsolv                  -0.107537060773 Eh    ::
         :: repulsion energy           0.200215020861 Eh    ::

    * Orbital Energies and Occupations

         #    Occupation            Energy/Eh            Energy/eV
      -------------------------------------------------------------
         1        2.0000           -0.7187496             -19.5582
       ...           ...                  ...                  ...
         9        2.0000           -0.5469624             -14.8836
        10        2.0000           -0.5401368             -14.6979
        11        2.0000           -0.5364258             -14.5969
        12        2.0000           -0.5090180             -13.8511
        13        2.0000           -0.5070292             -13.7970
        14        2.0000           -0.4901759             -13.3384
        15        2.0000           -0.4797427             -13.0545
        16        2.0000           -0.4778450             -13.0028
        17        2.0000           -0.4448376             -12.1046
        18        2.0000           -0.4234540             -11.5228
        19        2.0000           -0.4197258             -11.4213
        20        2.0000           -0.4060159             -11.0483
        21        2.0000           -0.3599053              -9.7935 (HOMO)
        22                         -0.2603561              -7.0846 (LUMO)
        23                         -0.1949517              -5.3049
        24                          0.0824534               2.2437
        25                          0.1294318               3.5220
        26                          0.1576838               4.2908
        27                          0.1887886               5.1372
        28                          0.2108953               5.7388
        29                          0.2419670               6.5843
        30                          0.2841181               7.7312
        31                          0.3995155              10.8714
        32                          0.5746404              15.6368
        33                          0.6211437              16.9022
      -------------------------------------------------------------
                  HL-Gap            0.0995492 Eh            2.7089 eV

     #   Z          covCN         q      C6AA      α(0)
     1   6 C        3.754    -0.146    23.372     6.894
     2   6 C        2.808     0.206    23.638     7.965
     3   8 O        0.856    -0.608    26.304     6.876
     4   8 O        0.856    -0.430    22.288     6.330
     5   8 O        0.857    -0.617    26.544     6.908
     6   6 C        2.686     0.354    20.984     7.497
     7   1 H        0.925     0.090     1.882     2.145
     8   1 H        0.925     0.093     1.852     2.128
     9   1 H        0.925     0.093     1.850     2.127
    10   8 O        1.608    -0.680    27.192     7.038
    11   1 H        0.803     0.310     0.691     1.305
    12   1 H        0.805     0.335     0.625     1.242

Wiberg/Mayer (AO) data.
largest (>0.10) Wiberg bond orders for each atom

     #   Z sym  total        # sym  WBO       # sym  WBO       # sym  WBO
 ---------------------------------------------------------------------------
     1   6 C    3.988 --     2 C    1.021     7 H    0.978     8 H    0.950
                             9 H    0.949
     2   6 C    3.872 --     4 O    1.820     1 C    1.021     6 C    0.880
     3   8 O    1.839 --     6 C    1.519     5 O    0.227
     4   8 O    2.011 --     2 C    1.820
     5   8 O    1.849 --     6 C    1.473     3 O    0.227
     6   6 C    3.937 --     3 O    1.519     5 O    1.473     2 C    0.880
     7   1 H    0.992 --     1 C    0.978
     8   1 H    0.991 --     1 C    0.950
     9   1 H    0.991 --     1 C    0.949
    10   8 O    1.768 --    12 H    0.887    11 H    0.857
    11   1 H    0.904 --    10 O    0.857
    12   1 H    0.888 --    10 O    0.887
 ---------------------------------------------------------------------------

molecular dipole:
                 x           y           z       tot (Debye)
 q only:       16.004       9.770      -1.082
   full:       16.209       9.834      -0.929      48.247

 projected vibrational frequencies (cm⁻¹)
eigval :       -0.00    -0.00    -0.00     0.00     0.00     0.00
eigval :       25.86    34.48    41.20   111.48   136.49   181.35
eigval :      207.04   214.01   381.65   382.52   581.53   612.39
eigval :      664.02   742.09   797.19   973.71   984.71  1146.59
eigval :     1334.70  1343.48  1423.69  1428.51  1517.59  1656.15
eigval :     1708.56  3019.55  3027.23  3043.63  3242.13  3595.63

   temp. (K)  partition function   enthalpy   heat capacity  entropy
                                   cal/mol     cal/K/mol   cal/K/mol   J/K/mol
 298.15  VIB  0.116E+05             4450.114     21.896     29.352
         ROT  0.321E+06              888.752      2.981     28.181
         INT  0.372E+10             5338.867     24.876     57.533
         TR   0.104E+28             1481.254      4.968     39.847
         TOT                        6820.1205    29.8445    97.3803   407.4393

       T/K    H(0)-H(T)+PV         H(T)/Eh          T*S/Eh         G(T)/Eh
   ------------------------------------------------------------------------
    298.15    0.108686E-01    0.896001E-01    0.462685E-01    0.433316E-01
   ------------------------------------------------------------------------

         :::::::::::::::::::::::::::::::::::::::::::::::::::::
         ::                  THERMODYNAMIC                  ::
         :::::::::::::::::::::::::::::::::::::::::::::::::::::
         :: total free energy         -25.519240792724 Eh   ::
         ::.................................................::
         :: total energy              -25.562572361187 Eh   ::
         :: zero point energy           0.078731552498 Eh   ::
         :: G(RRHO) w/o ZPVE           -0.035399984035 Eh   ::
         :: G(RRHO) contrib.            0.043331568463 Eh   ::
         :::::::::::::::::::::::::::::::::::::::::::::::::::::

           -------------------------------------------------
          | TOTAL ENERGY              -25.562572361187 Eh   |
          | TOTAL ENTHALPY            -25.472972254804 Eh   |
          | TOTAL FREE ENERGY         -25.519240792724 Eh   |
          | GRADIENT NORM               0.000860306058 Eh/α |
          | HOMO-LUMO GAP               2.708872714717 eV   |
           -------------------------------------------------

 * finished run on 2025/10/18 at 03:49:52.877
normal termination of xtb
