                         Program Version 5.0.4 -  RELEASE  -
|  1> !OPT PBE D3BJ def2-TZVP CPCM(water)
|  2>
|  3> * xyz -1 1
|  4> C     -3.563687    0.822179   -0.000011
|  5> C     -3.651546   -0.576137   -0.000016
|  6> H     -0.216566    1.180052   -0.000051
|  7> O     -2.271272    2.787792   -0.000021
|  8> C     -2.488953   -1.332381   -0.000032
|  9> H     -4.627224   -1.047261   -0.000006
| 10> C     -1.253145   -0.702851   -0.000044
| 11> Cl    -2.579848   -3.052811   -0.000038
| 12> C     -1.193172    0.696937   -0.000041
| 13> H     -0.332542   -1.274161   -0.000057
| 14> C     -2.338466    1.515969   -0.000024
| 15> H     -4.483950    1.405510    0.000002
| 16> *
| 17>
| 18>                          ****END OF INPUT****
 Total Charge           Charge          ....   -1
 Multiplicity           Mult            ....    1
 Number of Electrons    NEL             ....   66
Dispersion correction           -0.013495712
FINAL SINGLE POINT ENERGY      -766.184936249870
Dispersion correction            ... done
Dispersion correction           -0.013421712
FINAL SINGLE POINT ENERGY      -766.187771008055
Dispersion correction            ... done
Dispersion correction           -0.013399664
FINAL SINGLE POINT ENERGY      -766.188064556171
Dispersion correction            ... done
FINAL SINGLE POINT ENERGY      -766.188094511931
Dispersion correction            ... done
Dispersion correction           -0.013398770
FINAL SINGLE POINT ENERGY      -766.188104579179
Dispersion correction            ... done
Dispersion correction           -0.013400041
FINAL SINGLE POINT ENERGY      -766.188106490241
Dispersion correction            ... done
                    ***********************HURRAY********************

CARTESIAN COORDINATES (ANGSTROEM)
---------------------------------
  C     -3.588531    0.822654   -0.000012
  C     -3.662451   -0.568195   -0.000016
  H     -0.188628    1.180407   -0.000051
  O     -2.268629    2.824619   -0.000020
  C     -2.488688   -1.328196   -0.000032
  H     -4.633614   -1.068392   -0.000006
  C     -1.241561   -0.695995   -0.000045
  Cl    -2.581705   -3.090735   -0.000037
  C     -1.168836    0.694813   -0.000041
  H     -0.328303   -1.295434   -0.000058
  C     -2.337427    1.538215   -0.000024
  H     -4.511997    1.409076    0.000002

 Multiplicity           Mult            ....    1
 Number of Electrons    NEL             ....   66
 Basis Dimension        Dim             ....  278

ORBITAL ENERGIES
----------------

  NO   OCC          E(Eh)            E(eV)
   0   2.0000    -100.650506     -2738.8395
   1   2.0000     -18.662995      -507.8459
   2   2.0000      -9.913002      -269.7465
   3   2.0000      -9.906285      -269.5637
   4   2.0000      -9.875949      -268.7382
   5   2.0000      -9.875905      -268.7370
   6   2.0000      -9.857561      -268.2379
   7   2.0000      -9.857495      -268.2361
   8   2.0000      -9.164065      -249.3669
   9   2.0000      -6.987031      -190.1268
  10   2.0000      -6.977426      -189.8654
  11   2.0000      -6.977376      -189.8641
  12   2.0000      -0.862610       -23.4728
  13   2.0000      -0.787995       -21.4424
  14   2.0000      -0.724647       -19.7187
  15   2.0000      -0.657826       -17.9004
  16   2.0000      -0.610638       -16.6163
  17   2.0000      -0.529974       -14.4213
  18   2.0000      -0.500567       -13.6211
  19   2.0000      -0.431008       -11.7283
  20   2.0000      -0.398419       -10.8415
  21   2.0000      -0.384341       -10.4585
  22   2.0000      -0.355764        -9.6808
  23   2.0000      -0.344423        -9.3722
  24   2.0000      -0.339780        -9.2459
  25   2.0000      -0.303316        -8.2537
  26   2.0000      -0.301106        -8.1935
  27   2.0000      -0.295003        -8.0274
  28   2.0000      -0.262214        -7.1352
  29   2.0000      -0.244463        -6.6522
  30   2.0000      -0.216835        -5.9004
  31   2.0000      -0.164768        -4.4836
  32   2.0000      -0.145744        -3.9659
  33   0.0000      -0.028184        -0.7669
  34   0.0000      -0.000281        -0.0076
  35   0.0000       0.002045         0.0556
  36   0.0000       0.066323         1.8047
  37   0.0000       0.072790         1.9807

MULLIKEN ATOMIC CHARGES
-----------------------
   0 C :   -0.266989
   1 C :   -0.220871
   2 H :    0.084338
   3 O :   -0.604711
   4 C :    0.161395
   5 H :    0.120597
   6 C :   -0.221115
   7 Cl:   -0.200963
   8 C :   -0.266400
   9 H :    0.120742
  10 C :    0.209791
  11 H :    0.084186
Sum of atomic charges:   -1.0000000

LOEWDIN ATOMIC CHARGES
----------------------
   0 C :   -0.182720
   1 C :   -0.200474
   2 H :    0.136530
   3 O :   -0.179151
   4 C :   -0.480952
   5 H :    0.146245
   6 C :   -0.200512
   7 Cl:    0.296622
   8 C :   -0.182663
   9 H :    0.146256
  10 C :   -0.435680
  11 H :    0.136501

  Mayer bond orders larger than 0.100000
B(  0-C ,  1-C ) :   1.3861 B(  0-C , 10-C ) :   1.1753 B(  0-C , 11-H ) :   0.9795
B(  1-C ,  4-C ) :   1.3058 B(  1-C ,  5-H ) :   0.9644 B(  2-H ,  8-C ) :   0.9795
B(  3-O , 10-C ) :   1.7313 B(  4-C ,  6-C ) :   1.3060 B(  4-C ,  7-Cl) :   0.8436
B(  6-C ,  8-C ) :   1.3859 B(  6-C ,  9-H ) :   0.9642 B(  8-C , 10-C ) :   1.1745

Dispersion correction           -0.013400698
FINAL SINGLE POINT ENERGY      -766.188106975401

DIPOLE MOMENT
-------------
                                X             Y             Z
Electronic contribution:     -0.46221      -8.76890      -0.00002
Nuclear contribution   :      0.29086       5.51599       0.00002
                        -----------------------------------------
Total Dipole Moment    :     -0.17135      -3.25291      -0.00001
                        -----------------------------------------
Magnitude (a.u.)       :      3.25742
Magnitude (Debye)      :      8.27970

Rotational constants in cm-1:     0.188629     0.032413     0.027660
Rotational constants in MHz :  5654.952924   971.732149   829.238073

                             ****ORCA TERMINATED NORMALLY****
TOTAL RUN TIME: 0 days 0 hours 5 minutes 36 seconds 971 msec
