   * xtb version 6.7.1 (edcfbbe) compiled by 'albert@albert-system' on 2024-07-22

   ID    Z sym.   atoms
    1    6 C      1, 2, 9
    2    1 H      3-5, 7, 8, 10, 11
    3   16 S      6

          program call               : xtb xyz.xyz --charge -1 --ohess
          :  Hamiltonian                  GFN2-xTB          :
 * total energy  :   -13.3763324 Eh     change       -0.7949197E-11 Eh
 * total energy  :   -13.3771566 Eh     change       -0.8242253E-03 Eh
 * total energy  :   -13.3775496 Eh     change       -0.3929766E-03 Eh
 * total energy  :   -13.3779418 Eh     change       -0.3922596E-03 Eh
 * total energy  :   -13.3793191 Eh     change       -0.1377231E-02 Eh
 * total energy  :   -13.3799792 Eh     change       -0.6601390E-03 Eh
 * total energy  :   -13.3813173 Eh     change       -0.1338077E-02 Eh
 * total energy  :   -13.3818814 Eh     change       -0.5641016E-03 Eh
 * total energy  :   -13.3823560 Eh     change       -0.4746278E-03 Eh
 * total energy  :   -13.3825193 Eh     change       -0.1632640E-03 Eh
 * total energy  :   -13.3826109 Eh     change       -0.9167439E-04 Eh
 * total energy  :   -13.3826589 Eh     change       -0.4798728E-04 Eh
 * total energy  :   -13.3826888 Eh     change       -0.2989782E-04 Eh
 * total energy  :   -13.3827041 Eh     change       -0.1522529E-04 Eh
 * total energy  :   -13.3827101 Eh     change       -0.6032713E-05 Eh
 * total energy  :   -13.3827111 Eh     change       -0.1061278E-05 Eh
   *** GEOMETRY OPTIMIZATION CONVERGED AFTER 16 ITERATIONS ***

 final structure:
================
11
 xtb: 6.7.1 (edcfbbe)
C           -3.49332946926477        2.04661242560582        0.43373614841672
C           -0.46198588339240        1.20854671342093       -0.39192021676025
H           -1.35746166695138        0.57687190582621       -0.47435511308843
H           -3.33230627835463        2.26780053785374        1.47364401627782
H           -3.65047277492345        2.88993440510605       -0.21378519717174
S           -0.95099618872589        2.81701671457365        0.23512657352738
H            0.24984345297272        0.73241023365163        0.28873453993734
H           -0.00055492880110        1.30620604017967       -1.37888745114649
C           -3.64547333926910        0.79185306044075        0.00007160715518
H           -3.51666016862247       -0.06000444372497        0.65243337940104
H           -3.83407175466716        0.56360340706619       -1.03929228654835

          :  Hamiltonian                  GFN2-xTB          :
         :: gradient norm              0.000521970750 Eh/a0 ::
         :: HOMO-LUMO gap              2.456901197964 eV    ::
         :: SCC energy               -13.561029938000 Eh    ::
         :: -> dispersion             -0.006856140620 Eh    ::
         :: repulsion energy           0.178318793168 Eh    ::

    * Orbital Energies and Occupations

         #    Occupation            Energy/Eh            Energy/eV
      -------------------------------------------------------------
         1        2.0000           -0.4554759             -12.3941
         2        2.0000           -0.4317606             -11.7488
         3        2.0000           -0.4053214             -11.0294
         4        2.0000           -0.3794048             -10.3241
         5        2.0000           -0.3356604              -9.1338
         6        2.0000           -0.3068514              -8.3499
         7        2.0000           -0.3054172              -8.3108
         8        2.0000           -0.2981640              -8.1135
         9        2.0000           -0.2666261              -7.2553
        10        2.0000           -0.2450106              -6.6671
        11        2.0000           -0.2270765              -6.1791
        12        2.0000           -0.1192107              -3.2439
        13        2.0000           -0.1129478              -3.0735 (HOMO)
        14                         -0.0226583              -0.6166 (LUMO)
        15                          0.0554118               1.5078
        16                          0.2255620               6.1379
        17                          0.2259401               6.1481
        18                          0.2411137               6.5610
        19                          0.2510646               6.8318
        20                          0.3024287               8.2295
        21                          0.3278176               8.9204
        22                          0.3309776               9.0064
        23                          0.3727998              10.1444
        24                          0.4058465              11.0436
       ...                                ...                  ...
        28                          0.7302020              19.8698
      -------------------------------------------------------------
                  HL-Gap            0.0902895 Eh            2.4569 eV

     #   Z          covCN         q      C6AA      α(0)
     1   6 C        2.917    -0.046    29.131     8.851
     2   6 C        3.743     0.041    19.954     6.373
     3   1 H        0.924    -0.016     3.348     2.862
     4   1 H        0.926     0.017     2.772     2.604
     5   1 H        0.926     0.018     2.766     2.601
     6  16 S        1.055    -0.791   176.514    22.470
     7   1 H        0.924    -0.035     3.738     3.023
     8   1 H        0.924    -0.035     3.736     3.023
     9   6 C        2.832    -0.107    30.705     9.080
    10   1 H        0.926    -0.024     3.504     2.927
    11   1 H        0.926    -0.024     3.503     2.927

Wiberg/Mayer (AO) data.
largest (>0.10) Wiberg bond orders for each atom

     #   Z sym  total        # sym  WBO       # sym  WBO       # sym  WBO
 ---------------------------------------------------------------------------
     1   6 C    3.993 --     9 C    1.847     4 H    0.982     5 H    0.982
                             6 S    0.170
     2   6 C    3.992 --     6 S    1.035     7 H    0.988     8 H    0.988
                             3 H    0.968
     3   1 H    1.000 --     2 C    0.968
     4   1 H    1.000 --     1 C    0.982
     5   1 H    1.000 --     1 C    0.982
     6  16 S    1.366 --     2 C    1.035     1 C    0.170     9 C    0.135
     7   1 H    0.999 --     2 C    0.988
     8   1 H    0.999 --     2 C    0.988
     9   6 C    3.967 --     1 C    1.847    11 H    0.979    10 H    0.979
                             6 S    0.135
    10   1 H    0.999 --     9 C    0.979
    11   1 H    0.999 --     9 C    0.979
 ---------------------------------------------------------------------------

molecular dipole:
                 x           y           z       tot (Debye)
 q only:        2.547      -4.454      -0.275
   full:        2.669      -5.078      -0.508      14.638

 projected vibrational frequencies (cm⁻¹)
eigval :       -0.00    -0.00    -0.00     0.00     0.00     0.00
eigval :       69.29   142.27   163.43   183.22   273.86   384.22
eigval :      730.06   750.06   825.59   903.88   944.81   955.53
eigval :      968.78  1177.89  1322.44  1377.58  1427.59  1489.92
eigval :     1491.40  1623.50  2838.61  2896.17  2920.18  3052.34
eigval :     3055.90  3118.47  3140.51

   temp. (K)  partition function   enthalpy   heat capacity  entropy
                                   cal/mol     cal/K/mol   cal/K/mol   J/K/mol
 298.15  VIB   40.6                 2476.062     15.289     15.459
         ROT  0.103E+06              888.752      2.981     25.912
         INT  0.417E+07             3364.814     18.270     41.371
         TR   0.630E+27             1481.254      4.968     38.849
         TOT                        4846.0678    23.2382    80.2198   335.6395

       T/K    H(0)-H(T)+PV         H(T)/Eh          T*S/Eh         G(T)/Eh
   ------------------------------------------------------------------------
    298.15    0.772270E-02    0.948114E-01    0.381150E-01    0.566964E-01
   ------------------------------------------------------------------------

         :::::::::::::::::::::::::::::::::::::::::::::::::::::
         ::                  THERMODYNAMIC                  ::
         :::::::::::::::::::::::::::::::::::::::::::::::::::::
         :: total free energy         -13.326014767610 Eh   ::
         ::.................................................::
         :: total energy              -13.382711144832 Eh   ::
         :: zero point energy           0.087088679717 Eh   ::
         :: G(RRHO) w/o ZPVE           -0.030392302495 Eh   ::
         :: G(RRHO) contrib.            0.056696377222 Eh   ::
         :::::::::::::::::::::::::::::::::::::::::::::::::::::

           -------------------------------------------------
          | TOTAL ENERGY              -13.382711144832 Eh   |
          | TOTAL ENTHALPY            -13.287899764498 Eh   |
          | TOTAL FREE ENERGY         -13.326014767610 Eh   |
          | GRADIENT NORM               0.000521953254 Eh/α |
          | HOMO-LUMO GAP               2.456901942359 eV   |
           -------------------------------------------------

 * finished run on 2025/10/18 at 18:36:33.148
