                         Program Version 5.0.4 -  RELEASE  -
|  1> !OPT PBE D3BJ CPCM(water)
|  2>
|  3> *xyz -1 1
|  4> C     -4.476171   -3.726329   -3.185020
|  5> C     -3.470289   -2.704741   -2.648483
|  6> C     -4.100872   -1.732837   -1.612328
|  7> O     -3.106745   -1.022021   -1.098329
|  8> O     -5.393260   -3.121704   -4.101515
|  9> C     -6.389154   -4.038396   -4.521691
| 10> H     -5.934223   -4.896645   -5.025787
| 11> H     -6.986325   -4.376012   -3.669106
| 12> H     -7.050185   -3.530185   -5.228874
| 13> H     -3.929560   -4.512101   -3.719776
| 14> H     -5.024001   -4.192647   -2.357587
| 15> H     -2.646258   -3.264976   -2.183885
| 16> H     -3.053288   -2.133834   -3.489686
| 17> H     -4.901294   -1.201976   -2.151214
| 18> H     -4.686720   -2.363017   -0.924456
| 19> *
| 20>
| 21>                          ****END OF INPUT****
 Total Charge           Charge          ....   -1
 Multiplicity           Mult            ....    1
 Number of Electrons    NEL             ....   50
Dispersion correction           -0.010139582
FINAL SINGLE POINT ENERGY      -307.732040284570
Dispersion correction            ... done
Dispersion correction           -0.010021758
FINAL SINGLE POINT ENERGY      -307.742077818372
Dispersion correction            ... done
Dispersion correction           -0.010027731
FINAL SINGLE POINT ENERGY      -307.743187794913
Dispersion correction            ... done
FINAL SINGLE POINT ENERGY      -307.743464423926
FINAL SINGLE POINT ENERGY      -307.743503509267
Dispersion correction            ... done
Dispersion correction           -0.010043742
FINAL SINGLE POINT ENERGY      -307.743512830181
Dispersion correction            ... done
Dispersion correction           -0.010043988
FINAL SINGLE POINT ENERGY      -307.743513750161
Dispersion correction            ... done
                    ***********************HURRAY********************

CARTESIAN COORDINATES (ANGSTROEM)
---------------------------------
  C     -4.474167   -3.754388   -3.182950
  C     -3.482399   -2.736579   -2.648954
  C     -4.043743   -1.695798   -1.618509
  O     -3.155881   -0.844978   -1.133455
  O     -5.401477   -3.121477   -4.059811
  C     -6.383475   -4.009789   -4.537449
  H     -5.939188   -4.863077   -5.108276
  H     -6.995047   -4.447785   -3.709909
  H     -7.058231   -3.447986   -5.213915
  H     -3.959568   -4.590729   -3.722748
  H     -5.026992   -4.227842   -2.328388
  H     -2.646222   -3.274034   -2.146351
  H     -3.021681   -2.177826   -3.496504
  H     -4.965103   -1.239121   -2.166349
  H     -4.595171   -2.386013   -0.844170

 Multiplicity           Mult            ....    1
 Number of Electrons    NEL             ....   50
 Basis Dimension        Dim             ....  129

ORBITAL ENERGIES
----------------

  NO   OCC          E(Eh)            E(eV)
   0   2.0000     -18.750655      -510.2313
   1   2.0000     -18.599150      -506.1086
   2   2.0000      -9.928871      -270.1783
   3   2.0000      -9.923359      -270.0283
   4   2.0000      -9.885151      -268.9886
   5   2.0000      -9.859155      -268.2812
   6   2.0000      -0.924042       -25.1445
   7   2.0000      -0.774124       -21.0650
   8   2.0000      -0.665518       -18.1097
   9   2.0000      -0.587296       -15.9811
  10   2.0000      -0.526504       -14.3269
  11   2.0000      -0.467453       -12.7200
  12   2.0000      -0.427570       -11.6348
  13   2.0000      -0.400690       -10.9033
  14   2.0000      -0.389504       -10.5990
  15   2.0000      -0.349400        -9.5076
  16   2.0000      -0.330291        -8.9877
  17   2.0000      -0.313812        -8.5392
  18   2.0000      -0.274151        -7.4600
  19   2.0000      -0.271344        -7.3836
  20   2.0000      -0.258852        -7.0437
  21   2.0000      -0.249018        -6.7761
  22   2.0000      -0.199516        -5.4291
  23   2.0000      -0.101238        -2.7548
  24   2.0000      -0.097722        -2.6592
  25   0.0000       0.046664         1.2698
  26   0.0000       0.075269         2.0482
  27   0.0000       0.086099         2.3429
  28   0.0000       0.096774         2.6333
  29   0.0000       0.105713         2.8766

MULLIKEN ATOMIC CHARGES
-----------------------
   0 C :    0.125513
   1 C :   -0.025110
   2 C :    0.139216
   3 O :   -0.649846
   4 O :   -0.376854
   5 C :    0.111415
   6 H :    0.014675
   7 H :    0.016676
   8 H :    0.040575
   9 H :   -0.003104
  10 H :   -0.012613
  11 H :   -0.028522
  12 H :   -0.030862
  13 H :   -0.153988
  14 H :   -0.167170
Sum of atomic charges:   -1.0000000

LOEWDIN ATOMIC CHARGES
----------------------
   0 C :    0.051546
   1 C :   -0.113981
   2 C :   -0.043754
   3 O :   -0.619123
   4 O :   -0.181987
   5 C :    0.036673
   6 H :    0.008304
   7 H :    0.009259
   8 H :    0.024890
   9 H :    0.002933
  10 H :   -0.001430
  11 H :    0.008758
  12 H :    0.001920
  13 H :   -0.089725
  14 H :   -0.094282

  Mayer bond orders larger than 0.100000
B(  0-C ,  1-C ) :   1.0343 B(  0-C ,  4-O ) :   0.9863 B(  0-C ,  9-H ) :   0.9230
B(  0-C , 10-H ) :   0.9197 B(  1-C ,  2-C ) :   0.9661 B(  1-C , 11-H ) :   0.9135
B(  1-C , 12-H ) :   0.9177 B(  2-C ,  3-O ) :   1.5615 B(  2-C , 13-H ) :   0.8463
B(  2-C , 14-H ) :   0.8274 B(  4-O ,  5-C ) :   1.0191 B(  5-C ,  6-H ) :   0.9526
B(  5-C ,  7-H ) :   0.9540 B(  5-C ,  8-H ) :   0.9744

Dispersion correction           -0.010044194
FINAL SINGLE POINT ENERGY      -307.743513946098

DIPOLE MOMENT
-------------
                                X             Y             Z
Electronic contribution:      1.42194       2.58232      -0.06822
Nuclear contribution   :     -3.35122      -5.91716      -2.69196
                        -----------------------------------------
Total Dipole Moment    :     -1.92927      -3.33484      -2.76018
                        -----------------------------------------
Magnitude (a.u.)       :      4.73939
Magnitude (Debye)      :     12.04658

Rotational constants in cm-1:     0.376499     0.047856     0.045252
Rotational constants in MHz : 11287.157952  1434.684324  1356.631036

                             ****ORCA TERMINATED NORMALLY****
TOTAL RUN TIME: 0 days 0 hours 2 minutes 38 seconds 805 msec
