                         Program Version 5.0.4 -  RELEASE  -
|  1> !OPT PBE D3BJ def2-TZVP CPCM(water)
|  2>
|  3> *xyz -1 1
|  4> C     -4.024449   -1.884272    1.977299
|  5> C     -3.713738   -2.389538    0.646322
|  6> Cl    -7.501759   -3.990843    2.819254
|  7> C     -5.202263   -2.370508    2.674068
|  8> H     -3.380272   -1.150048    2.444154
|  9> C     -4.580368   -3.376409    0.019877
| 10> H     -2.836119   -2.024040    0.132896
| 11> C     -5.761082   -3.861088    0.723355
| 12> H     -4.349350   -3.750623   -0.967100
| 13> C     -6.084993   -3.361893    2.060997
| 14> H     -6.403213   -4.593777    0.256533
| 15> O     -5.420624   -1.902456    3.814002
| 16> *
| 17>
| 18>                          ****END OF INPUT****
 Total Charge           Charge          ....   -1
 Multiplicity           Mult            ....    1
 Number of Electrons    NEL             ....   66
Dispersion correction           -0.013317726
FINAL SINGLE POINT ENERGY      -766.171323482448
Dispersion correction            ... done
Dispersion correction           -0.013477832
FINAL SINGLE POINT ENERGY      -766.188269250660
Dispersion correction            ... done
Dispersion correction           -0.013541743
FINAL SINGLE POINT ENERGY      -766.190978341116
Dispersion correction            ... done
FINAL SINGLE POINT ENERGY      -766.191258886957
FINAL SINGLE POINT ENERGY      -766.191353178512
FINAL SINGLE POINT ENERGY      -766.191360580936
Dispersion correction            ... done
Dispersion correction           -0.013515685
FINAL SINGLE POINT ENERGY      -766.191361596827
Dispersion correction            ... done
Dispersion correction           -0.013516122
FINAL SINGLE POINT ENERGY      -766.191362919214
Dispersion correction            ... done
                    ***********************HURRAY********************

CARTESIAN COORDINATES (ANGSTROEM)
---------------------------------
  C     -4.059192   -1.935299    1.933084
  C     -3.761091   -2.416517    0.661557
  Cl    -7.443978   -3.949866    2.820626
  C     -5.205469   -2.359963    2.696749
  H     -3.409582   -1.193004    2.406777
  C     -4.581852   -3.367246    0.036999
  H     -2.871700   -2.044950    0.144597
  C     -5.713373   -3.823921    0.725684
  H     -4.353127   -3.748194   -0.958988
  C     -6.005533   -3.339090    1.996356
  H     -6.375745   -4.564402    0.271886
  O     -5.477588   -1.913042    3.866330

 Multiplicity           Mult            ....    1
 Number of Electrons    NEL             ....   66
 Basis Dimension        Dim             ....  278

ORBITAL ENERGIES
----------------

  NO   OCC          E(Eh)            E(eV)
   0   2.0000    -100.645423     -2738.7012
   1   2.0000     -18.668887      -508.0062
   2   2.0000      -9.913421      -269.7579
   3   2.0000      -9.909182      -269.6425
   4   2.0000      -9.874765      -268.7060
   5   2.0000      -9.869186      -268.5542
   6   2.0000      -9.860687      -268.3229
   7   2.0000      -9.856931      -268.2207
   8   2.0000      -9.158911      -249.2266
   9   2.0000      -6.981741      -189.9828
  10   2.0000      -6.972587      -189.7337
  11   2.0000      -6.972070      -189.7197
  12   2.0000      -0.872167       -23.7329
  13   2.0000      -0.775989       -21.1157
  14   2.0000      -0.731944       -19.9172
  15   2.0000      -0.644847       -17.5472
  16   2.0000      -0.620702       -16.8902
  17   2.0000      -0.520998       -14.1771
  18   2.0000      -0.503509       -13.7012
  19   2.0000      -0.432803       -11.7772
  20   2.0000      -0.397897       -10.8273
  21   2.0000      -0.384172       -10.4538
  22   2.0000      -0.356459        -9.6998
  23   2.0000      -0.343261        -9.3406
  24   2.0000      -0.339266        -9.2319
  25   2.0000      -0.303489        -8.2584
  26   2.0000      -0.293948        -7.9987
  27   2.0000      -0.283486        -7.7141
  28   2.0000      -0.265668        -7.2292
  29   2.0000      -0.256435        -6.9779
  30   2.0000      -0.205039        -5.5794
  31   2.0000      -0.171469        -4.6659
  32   2.0000      -0.150289        -4.0896
  33   0.0000      -0.026002        -0.7075
  34   0.0000       0.000583         0.0159
  35   0.0000       0.009068         0.2468
  36   0.0000       0.058513         1.5922
  37   0.0000       0.076139         2.0719

MULLIKEN ATOMIC CHARGES
-----------------------
   0 C :   -0.245082
   1 C :   -0.161814
   2 Cl:   -0.213514
   3 C :    0.065453
   4 H :    0.083247
   5 C :   -0.208053
   6 H :    0.117535
   7 C :   -0.230304
   8 H :    0.119489
   9 C :    0.117548
  10 H :    0.122526
  11 O :   -0.567032
Sum of atomic charges:   -1.0000000

LOEWDIN ATOMIC CHARGES
----------------------
   0 C :   -0.186713
   1 C :   -0.197983
   2 Cl:    0.291358
   3 C :   -0.450874
   4 H :    0.136960
   5 C :   -0.225518
   6 H :    0.143822
   7 C :   -0.203551
   8 H :    0.141017
   9 C :   -0.436086
  10 H :    0.145937
  11 O :   -0.158368

  Mayer bond orders larger than 0.100000
B(  0-C ,  1-C ) :   1.4187 B(  0-C ,  3-C ) :   1.2366 B(  0-C ,  4-H ) :   0.9723
B(  1-C ,  5-C ) :   1.3647 B(  1-C ,  6-H ) :   0.9630 B(  2-Cl,  7-C ) :   0.1136
B(  2-Cl,  9-C ) :   0.8313 B(  3-C ,  9-C ) :   1.0172 B(  3-C , 11-O ) :   1.9257
B(  5-C ,  7-C ) :   1.3901 B(  5-C ,  8-H ) :   0.9707 B(  7-C ,  9-C ) :   1.3678
B(  7-C , 10-H ) :   0.9605

Dispersion correction           -0.013516158
FINAL SINGLE POINT ENERGY      -766.191362957571

DIPOLE MOMENT
-------------
                                X             Y             Z
Electronic contribution:     -7.52558      -2.93081       4.78062
Nuclear contribution   :      7.65996       1.84059      -6.93159
                        -----------------------------------------
Total Dipole Moment    :      0.13439      -1.09021      -2.15098
                        -----------------------------------------
Magnitude (a.u.)       :      2.41523
Magnitude (Debye)      :      6.13902

Rotational constants in cm-1:     0.099502     0.050973     0.033706
Rotational constants in MHz :  2983.006530  1528.141387  1010.487341

                             ****ORCA TERMINATED NORMALLY****
TOTAL RUN TIME: 0 days 0 hours 6 minutes 44 seconds 991 msec
