   * xtb version 6.7.1 (edcfbbe) compiled by 'albert@albert-system' on 2024-07-22

   ID    Z sym.   atoms
    1    6 C      1, 2, 4, 5, 7, 9, 11
    2    1 H      3, 6, 8, 12-15
    3    8 O      10

          program call               : xtb xyz.xyz --alpb water --charge -1 --ohess
      * Solvation model:               ALPB
        Solvent                        water
        Solvent mass                       1.8000E+01 g/mol
          :  Hamiltonian                  GFN2-xTB          :
 * total energy  :   -22.8799386 Eh     change       -0.3714327E-09 Eh
 * total energy  :   -22.9038895 Eh     change       -0.2395087E-01 Eh
 * total energy  :   -22.9060039 Eh     change       -0.2114387E-02 Eh
 * total energy  :   -22.9060921 Eh     change       -0.8818964E-04 Eh
 * total energy  :   -22.9060964 Eh     change       -0.4298315E-05 Eh
   *** GEOMETRY OPTIMIZATION CONVERGED AFTER 5 ITERATIONS ***

 final structure:
================
15
 xtb: 6.7.1 (edcfbbe)
C           -5.23167026136100       -6.37934249481241        2.97373782176228
C           -5.07285498483655       -5.13369488817840        3.56267707405976
H           -5.90040303294971       -7.10766508548483        3.41229036990005
C           -4.67602591312118       -8.02607858599117        1.15431283862991
C           -4.22855364454978       -4.19382524575483        3.02229974067837
H           -5.62348952419260       -4.89474457316013        4.46609666456498
C           -3.48257011422042       -4.45544916007128        1.84096596097240
H           -4.10795050223003       -3.22022681532001        3.48649261582289
C           -3.67524949423980       -5.74104026958600        1.27074317954195
O           -2.68851495114521       -3.58512270183810        1.32171189464633
C           -4.52398921271502       -6.68297542609171        1.81555103527079
H           -5.37845286662911       -8.64757505788851        1.70457036955094
H           -5.03681987648066       -7.90491573960531        0.13351678247573
H           -3.71399041553292       -8.53545512208622        1.11013753190272
H           -3.11825820579600       -5.96740483413110        0.36631612022090

          :  Hamiltonian                  GFN2-xTB          :
         :: gradient norm              0.000788717349 Eh/a0 ::
         :: HOMO-LUMO gap              3.460118929733 eV    ::
         :: SCC energy               -23.258820298012 Eh    ::
         :: -> dispersion             -0.012310950049 Eh    ::
         :: -> Gsolv                  -0.099412908021 Eh    ::
         :: repulsion energy           0.352723924910 Eh    ::

    * Orbital Energies and Occupations

         #    Occupation            Energy/Eh            Energy/eV
      -------------------------------------------------------------
         1        2.0000           -0.6165305             -16.7766
       ...           ...                  ...                  ...
         9        2.0000           -0.4760732             -12.9546
        10        2.0000           -0.4750208             -12.9260
        11        2.0000           -0.4699076             -12.7868
        12        2.0000           -0.4455170             -12.1231
        13        2.0000           -0.4434215             -12.0661
        14        2.0000           -0.4417911             -12.0217
        15        2.0000           -0.4374933             -11.9048
        16        2.0000           -0.4014958             -10.9253
        17        2.0000           -0.4013803             -10.9221
        18        2.0000           -0.3963417             -10.7850
        19        2.0000           -0.3605388              -9.8108
        20        2.0000           -0.3209198              -8.7327
        21        2.0000           -0.3096658              -8.4264 (HOMO)
        22                         -0.1825088              -4.9663 (LUMO)
        23                         -0.1606738              -4.3722
        24                         -0.0471136              -1.2820
        25                          0.1267427               3.4488
        26                          0.1392125               3.7882
        27                          0.1741666               4.7393
        28                          0.1904306               5.1819
        29                          0.2043345               5.5602
        30                          0.2211695               6.0183
        31                          0.2274250               6.1885
        32                          0.2344037               6.3784
       ...                                ...                  ...
        39                          0.7048014              19.1786
      -------------------------------------------------------------
                  HL-Gap            0.1271569 Eh            3.4601 eV

     #   Z          covCN         q      C6AA      α(0)
     1   6 C        2.923    -0.087    30.172     9.008
     2   6 C        2.912    -0.051    29.274     8.872
     3   1 H        0.925    -0.001     3.083     2.746
     4   6 C        3.758    -0.107    22.599     6.778
     5   6 C        2.918    -0.101    30.547     9.063
     6   1 H        0.925    -0.006     3.172     2.785
     7   6 C        2.832     0.161    24.524     8.115
     8   1 H        0.925    -0.031     3.663     2.993
     9   6 C        2.925    -0.106    30.666     9.081
    10   8 O        0.857    -0.742    29.894     7.331
    11   6 C        2.961    -0.011    28.284     8.723
    12   1 H        0.925     0.039     2.467     2.456
    13   1 H        0.925     0.036     2.506     2.476
    14   1 H        0.925     0.036     2.506     2.475
    15   1 H        0.925    -0.026     3.561     2.951

Wiberg/Mayer (AO) data.
largest (>0.10) Wiberg bond orders for each atom

     #   Z sym  total        # sym  WBO       # sym  WBO       # sym  WBO
 ---------------------------------------------------------------------------
     1   6 C    3.975 --     2 C    1.403    11 C    1.383     3 H    0.970
     2   6 C    3.989 --     5 C    1.497     1 C    1.403     6 H    0.970
     3   1 H    1.000 --     1 C    0.970
     4   6 C    3.998 --    11 C    1.017    12 H    0.987    13 H    0.978
                            14 H    0.978
     5   6 C    3.976 --     2 C    1.497     7 C    1.247     8 H    0.971
     6   1 H    1.000 --     2 C    0.970
     7   6 C    3.964 --    10 O    1.358     9 C    1.258     5 C    1.247
     8   1 H    0.999 --     5 C    0.971
     9   6 C    3.974 --    11 C    1.467     7 C    1.258    15 H    0.970
                            10 O    0.102
    10   8 O    1.651 --     7 C    1.358     9 C    0.102
    11   6 C    3.987 --     9 C    1.467     1 C    1.383     4 C    1.017
    12   1 H    0.998 --     4 C    0.987
    13   1 H    0.999 --     4 C    0.978
    14   1 H    0.999 --     4 C    0.978
    15   1 H    0.999 --     9 C    0.970
 ---------------------------------------------------------------------------

molecular dipole:
                 x           y           z       tot (Debye)
 q only:        6.144       7.755      -3.310
   full:        6.097       7.722      -3.266      26.350

 projected vibrational frequencies (cm⁻¹)
eigval :       -0.00    -0.00    -0.00    -0.00     0.00     0.00
eigval :      -19.95   193.02   203.37   297.80   404.84   455.87
eigval :      498.70   523.42   545.51   655.58   746.33   760.23
eigval :      815.55   855.24   903.10   956.84   979.12  1025.01
eigval :     1030.00  1122.08  1183.61  1194.03  1262.75  1297.56
eigval :     1362.26  1392.36  1452.12  1482.53  1489.95  1501.34
eigval :     1555.11  1606.36  2986.85  2991.72  2993.33  3005.50
eigval :     3009.55  3027.97  3042.89

   temp. (K)  partition function   enthalpy   heat capacity  entropy
                                   cal/mol     cal/K/mol   cal/K/mol   J/K/mol
 298.15  VIB   77.7                 2776.122     20.035     15.831
         ROT  0.293E+06              888.752      2.981     27.994
         INT  0.227E+08             3664.874     23.016     43.825
         TR   0.107E+28             1481.254      4.968     39.905
         TOT                        5146.1278    27.9845    83.7302   350.3271

       T/K    H(0)-H(T)+PV         H(T)/Eh          T*S/Eh         G(T)/Eh
   ------------------------------------------------------------------------
    298.15    0.820088E-02    0.123999E+00    0.397829E-01    0.842158E-01
   ------------------------------------------------------------------------

         :::::::::::::::::::::::::::::::::::::::::::::::::::::
         ::                  THERMODYNAMIC                  ::
         :::::::::::::::::::::::::::::::::::::::::::::::::::::
         :: total free energy         -22.821880595695 Eh   ::
         ::.................................................::
         :: total energy              -22.906096372585 Eh   ::
         :: zero point energy           0.115797815152 Eh   ::
         :: G(RRHO) w/o ZPVE           -0.031582038262 Eh   ::
         :: G(RRHO) contrib.            0.084215776891 Eh   ::
         :::::::::::::::::::::::::::::::::::::::::::::::::::::

           -------------------------------------------------
          | TOTAL ENERGY              -22.906096372585 Eh   |
          | TOTAL ENTHALPY            -22.782097680735 Eh   |
          | TOTAL FREE ENERGY         -22.821880595695 Eh   |
          | GRADIENT NORM               0.000789048303 Eh/α |
          | HOMO-LUMO GAP               3.460116258408 eV   |
           -------------------------------------------------

 * finished run on 2025/10/18 at 02:46:10.666
