   * xtb version 6.5.0 (97a52f5) compiled by 'conda@d2599ee0d4f4' on 2022-05-15
          program call               : xtb xyz.xyz --charge -1 --opt

   ID    Z sym.   atoms
    1    8 O      1
    2    1 H      2

          :  Hamiltonian                  GFN2-xTB          :
 * total energy  :    -4.5493895 Eh     change        0.0000000E+00 Eh
 * total energy  :    -4.6370815 Eh     change       -0.8769194E-01 Eh
 * total energy  :    -4.4442708 Eh     change        0.1928107E+00 Eh
 * total energy  :    -4.6759421 Eh     change       -0.2316713E+00 Eh
 * total energy  :    -4.6776725 Eh     change       -0.1730443E-02 Eh
 * total energy  :    -4.6803724 Eh     change       -0.2699897E-02 Eh
 * total energy  :    -4.6815479 Eh     change       -0.1175508E-02 Eh
 * total energy  :    -4.6816673 Eh     change       -0.1194168E-03 Eh
 * total energy  :    -4.6816702 Eh     change       -0.2853957E-05 Eh
   *** GEOMETRY OPTIMIZATION CONVERGED AFTER 9 ITERATIONS ***

 final structure:
================
2
 xtb: 6.5.0 (97a52f5)
O            0.51065938266266        0.00000000000000        0.00000000000000
H            1.48934061733734        0.00000000000000        0.00000000000000

          :  Hamiltonian                  GFN2-xTB          :
         :: total energy              -4.681670186300 Eh    ::
         :: gradient norm              0.000115432340 Eh/a0 ::
         :: HOMO-LUMO gap             13.218358249826 eV    ::
         :: SCC energy                -4.695699565613 Eh    ::
         :: -> dispersion             -0.000151282806 Eh    ::
         :: repulsion energy           0.014029379313 Eh    ::

    * Orbital Energies and Occupations

         #    Occupation            Energy/Eh            Energy/eV
      -------------------------------------------------------------
         1        2.0000           -0.2718043              -7.3962
         2        2.0000           -0.1365506              -3.7157
         3        2.0000           -0.0114774              -0.3123
         4        2.0000           -0.0114774              -0.3123 (HOMO)
         5                          0.4742883              12.9060 (LUMO)
      -------------------------------------------------------------
                  HL-Gap            0.4857657 Eh           13.2184 eV

     #   Z          covCN         q      C6AA      α(0)
     1   8 O        0.803    -1.026    39.392     8.413
     2   1 H        0.803     0.026     2.693     2.578

Wiberg/Mayer (AO) data.
largest (>0.10) Wiberg bond orders for each atom

     #   Z sym  total        # sym  WBO       # sym  WBO       # sym  WBO
 ---------------------------------------------------------------------------
     1   8 O    0.999 --     2 H    0.999
     2   1 H    0.999 --     1 O    0.999
 ---------------------------------------------------------------------------

molecular dipole:
                 x           y           z       tot (Debye)
 q only:       -0.917       0.000       0.000
   full:       -0.674       0.000       0.000       1.713

           -------------------------------------------------
          | TOTAL ENERGY               -4.681670186300 Eh   |
          | GRADIENT NORM               0.000115432340 Eh/α |
          | HOMO-LUMO GAP              13.218358249826 eV   |
           -------------------------------------------------

 * finished run on 2025/10/19 at 22:38:33.498
