   * xtb version 6.7.1 (edcfbbe) compiled by 'albert@albert-system' on 2024-07-22

   ID    Z sym.   atoms
    1    8 O      1, 6
    2    6 C      2
    3    1 H      3-5, 7, 8

          program call               : xtb tb_lite_results_shiftn0p25_gp49_b0_rot0_complex.xyz --ohess --chrg -1 --alpb water
      * Solvation model:               ALPB
        Solvent                        water
        Solvent mass                       1.8000E+01 g/mol
          :  Hamiltonian                  GFN2-xTB          :
 * total energy  :   -13.0883487 Eh     change       -0.2327383E-10 Eh
 * total energy  :   -13.0922449 Eh     change       -0.3896222E-02 Eh
 * total energy  :   -13.0925112 Eh     change       -0.2663066E-03 Eh
 * total energy  :   -13.0926241 Eh     change       -0.1128765E-03 Eh
 * total energy  :   -13.0926996 Eh     change       -0.7554305E-04 Eh
 * total energy  :   -13.0927122 Eh     change       -0.1260377E-04 Eh
 * total energy  :   -13.0927184 Eh     change       -0.6219667E-05 Eh
 * total energy  :   -13.0927236 Eh     change       -0.5131604E-05 Eh
 * total energy  :   -13.0927266 Eh     change       -0.3030794E-05 Eh
   *** GEOMETRY OPTIMIZATION CONVERGED AFTER 9 ITERATIONS ***

 final structure:
================
8
 xtb: 6.7.1 (edcfbbe)
O           -1.17677263820543        4.33651752107237       -1.33718705010743
C           -1.48376749905336        3.35768263333876       -0.46650327177116
H           -2.31000282495649        2.69866861683063       -0.82837212296696
H           -0.62146550248512        2.68381542193551       -0.24874725802796
H           -1.81701152308404        3.76625818226451        0.51556109651048
O           -0.21523318406639        3.36534625031806       -3.50787283140532
H           -0.57729325585518        3.74188712872099       -2.62863620643888
H           -0.50167575959284        4.00588055178187       -4.16655712834997

          :  Hamiltonian                  GFN2-xTB          :
         :: gradient norm              0.000443460171 Eh/a0 ::
         :: HOMO-LUMO gap             12.349938396639 eV    ::
         :: SCC energy               -13.172872017449 Eh    ::
         :: -> dispersion             -0.002719391103 Eh    ::
         :: -> Gsolv                  -0.121442273907 Eh    ::
         :: repulsion energy           0.080145405926 Eh    ::

    * Orbital Energies and Occupations

         #    Occupation            Energy/Eh            Energy/eV
      -------------------------------------------------------------
         1        2.0000           -0.6404771             -17.4283
         2        2.0000           -0.6140647             -16.7096
         3        2.0000           -0.5703145             -15.5190
         4        2.0000           -0.5199727             -14.1492
         5        2.0000           -0.4871131             -13.2550
         6        2.0000           -0.4848939             -13.1946
         7        2.0000           -0.4730466             -12.8723
         8        2.0000           -0.4492037             -12.2235
         9        2.0000           -0.4044321             -11.0052
        10        2.0000           -0.3301927              -8.9850
        11        2.0000           -0.3295742              -8.9682 (HOMO)
        12                          0.1242773               3.3818 (LUMO)
        13                          0.1371370               3.7317
        14                          0.1787459               4.8639
        15                          0.1821761               4.9573
        16                          0.2480417               6.7496
        17                          0.3241132               8.8196
      -------------------------------------------------------------
                  HL-Gap            0.4538515 Eh           12.3499 eV

     #   Z          covCN         q      C6AA      α(0)
     1   8 O        0.862    -0.832    32.575     7.652
     2   6 C        3.615     0.159    18.467     6.201
     3   1 H        0.920    -0.075     4.749     3.408
     4   1 H        0.921    -0.074     4.730     3.401
     5   1 H        0.921    -0.072     4.671     3.380
     6   8 O        1.598    -0.732    28.575     7.214
     7   1 H        0.801     0.293     0.742     1.353
     8   1 H        0.805     0.332     0.633     1.250

Wiberg/Mayer (AO) data.
largest (>0.10) Wiberg bond orders for each atom

     #   Z sym  total        # sym  WBO       # sym  WBO       # sym  WBO
 ---------------------------------------------------------------------------
     1   8 O    1.411 --     2 C    1.109     7 H    0.137
     2   6 C    3.987 --     1 O    1.109     5 H    0.960     4 H    0.958
                             3 H    0.957
     3   1 H    0.994 --     2 C    0.957
     4   1 H    0.995 --     2 C    0.958
     5   1 H    0.995 --     2 C    0.960
     6   8 O    1.730 --     8 H    0.889     7 H    0.775
     7   1 H    0.914 --     6 O    0.775     1 O    0.137
     8   1 H    0.890 --     6 O    0.889
 ---------------------------------------------------------------------------

molecular dipole:
                 x           y           z       tot (Debye)
 q only:        1.726      -7.144       2.826
   full:        1.549      -7.209       3.071      20.302

 projected vibrational frequencies (cm⁻¹)
eigval :       -0.00    -0.00    -0.00     0.00     0.00     0.00
eigval :       40.34    78.36   122.75   338.44   617.10   986.01
eigval :     1073.33  1171.18  1175.25  1444.12  1514.12  1517.12
eigval :     1565.60  2334.76  2550.78  2574.35  2716.09  3613.59

   temp. (K)  partition function   enthalpy   heat capacity  entropy
                                   cal/mol     cal/K/mol   cal/K/mol   J/K/mol
 298.15  VIB   53.9                 1865.309      9.054     13.002
         ROT  0.299E+05              888.752      2.981     23.464
         INT  0.161E+07             2754.062     12.035     36.466
         TR   0.332E+27             1481.254      4.968     37.578
         TOT                        4235.3155    17.0028    74.0437   309.7987

       T/K    H(0)-H(T)+PV         H(T)/Eh          T*S/Eh         G(T)/Eh
   ------------------------------------------------------------------------
    298.15    0.674940E-02    0.646907E-01    0.351805E-01    0.295102E-01
   ------------------------------------------------------------------------

         :::::::::::::::::::::::::::::::::::::::::::::::::::::
         ::                  THERMODYNAMIC                  ::
         :::::::::::::::::::::::::::::::::::::::::::::::::::::
         :: total free energy         -13.063216451207 Eh   ::
         ::.................................................::
         :: total energy              -13.092726610951 Eh   ::
         :: zero point energy           0.057941292273 Eh   ::
         :: G(RRHO) w/o ZPVE           -0.028431132528 Eh   ::
         :: G(RRHO) contrib.            0.029510159745 Eh   ::
         :::::::::::::::::::::::::::::::::::::::::::::::::::::

           -------------------------------------------------
          | TOTAL ENERGY              -13.092726610951 Eh   |
          | TOTAL ENTHALPY            -13.028035913876 Eh   |
          | TOTAL FREE ENERGY         -13.063216451207 Eh   |
          | GRADIENT NORM               0.000443469309 Eh/α |
          | HOMO-LUMO GAP              12.349929131637 eV   |
           -------------------------------------------------

 * finished run on 2025/10/17 at 22:29:31.634
normal termination of xtb
