   * xtb version 6.7.1 (edcfbbe) compiled by 'albert@albert-system' on 2024-07-22

   ID    Z sym.   atoms
    1    8 O      1
    2    6 C      2
    3    1 H      3-5

          program call               : xtb tb_lite_results_shiftn0p25_gp49_b0_rot0_solute.xyz --ohess --chrg -1
          :  Hamiltonian                  GFN2-xTB          :
 * total energy  :    -7.8687867 Eh     change       -0.1081801E-11 Eh
 * total energy  :    -7.8708530 Eh     change       -0.2066308E-02 Eh
 * total energy  :    -7.8714333 Eh     change       -0.5803083E-03 Eh
 * total energy  :    -7.8716249 Eh     change       -0.1915219E-03 Eh
 * total energy  :    -7.8716502 Eh     change       -0.2534132E-04 Eh
 * total energy  :    -7.8716506 Eh     change       -0.3915190E-06 Eh
   *** GEOMETRY OPTIMIZATION CONVERGED AFTER 6 ITERATIONS ***

 final structure:
================
5
 xtb: 6.7.1 (edcfbbe)
O           -1.21864278530560        4.34903751910364       -1.34001159133079
C           -1.47735974685859        3.40043720061026       -0.49931097810128
H           -2.35096263188232        2.69842790492412       -0.78684506726852
H           -0.61423598902327        2.65614731946157       -0.29976241081358
H           -1.76892188353250        3.73956513918447        0.56787403554809

          :  Hamiltonian                  GFN2-xTB          :
         :: gradient norm              0.000368749748 Eh/a0 ::
         :: HOMO-LUMO gap             10.720673732111 eV    ::
         :: SCC energy                -7.920680655307 Eh    ::
         :: -> dispersion             -0.001771525602 Eh    ::
         :: repulsion energy           0.049030060020 Eh    ::

    * Orbital Energies and Occupations

         #    Occupation            Energy/Eh            Energy/eV
      -------------------------------------------------------------
         1        2.0000           -0.3773099             -10.2671
         2        2.0000           -0.3387007              -9.2165
         3        2.0000           -0.2608579              -7.0983
         4        2.0000           -0.2607799              -7.0962
         5        2.0000           -0.2151931              -5.8557
         6        2.0000           -0.0848281              -2.3083
         7        2.0000           -0.0847973              -2.3075 (HOMO)
         8                          0.3091801               8.4132 (LUMO)
         9                          0.3459893               9.4148
        10                          0.3462678               9.4224
        11                          0.6114186              16.6375
      -------------------------------------------------------------
                  HL-Gap            0.3939775 Eh           10.7207 eV

     #   Z          covCN         q      C6AA      α(0)
     1   8 O        0.855    -0.772    30.757     7.435
     2   6 C        3.583     0.209    17.910     6.141
     3   1 H        0.909    -0.146     7.483     4.279
     4   1 H        0.909    -0.146     7.483     4.279
     5   1 H        0.909    -0.146     7.482     4.279

Wiberg/Mayer (AO) data.
largest (>0.10) Wiberg bond orders for each atom

     #   Z sym  total        # sym  WBO       # sym  WBO       # sym  WBO
 ---------------------------------------------------------------------------
     1   8 O    1.420 --     2 C    1.229
     2   6 C    3.971 --     1 O    1.229     5 H    0.914     4 H    0.914
                             3 H    0.914
     3   1 H    0.979 --     2 C    0.914
     4   1 H    0.979 --     2 C    0.914
     5   1 H    0.979 --     2 C    0.914
 ---------------------------------------------------------------------------

molecular dipole:
                 x           y           z       tot (Debye)
 q only:        2.497      -7.505       1.901
   full:        2.411      -7.824       2.183      21.536

 projected vibrational frequencies (cm⁻¹)
eigval :       -0.00    -0.00    -0.00    -0.00     0.00     0.00
eigval :     1181.57  1181.71  1207.73  1486.23  1486.91  1506.40
eigval :     2065.12  2065.35  2365.20

   temp. (K)  partition function   enthalpy   heat capacity  entropy
                                   cal/mol     cal/K/mol   cal/K/mol   J/K/mol
 298.15  VIB   1.01                   42.981      0.886      0.168
         ROT   800.                  888.752      2.981     16.264
         INT   809.                  931.733      3.867     16.432
         TR   0.167E+27             1481.254      4.968     36.214
         TOT                        2412.9872     8.8349    52.6460   220.2709

       T/K    H(0)-H(T)+PV         H(T)/Eh          T*S/Eh         G(T)/Eh
   ------------------------------------------------------------------------
    298.15    0.384534E-02    0.369841E-01    0.250138E-01    0.119703E-01
   ------------------------------------------------------------------------

         :::::::::::::::::::::::::::::::::::::::::::::::::::::
         ::                  THERMODYNAMIC                  ::
         :::::::::::::::::::::::::::::::::::::::::::::::::::::
         :: total free energy          -7.859680319274 Eh   ::
         ::.................................................::
         :: total energy               -7.871650595288 Eh   ::
         :: zero point energy           0.033138753094 Eh   ::
         :: G(RRHO) w/o ZPVE           -0.021168477081 Eh   ::
         :: G(RRHO) contrib.            0.011970276013 Eh   ::
         :::::::::::::::::::::::::::::::::::::::::::::::::::::

           -------------------------------------------------
          | TOTAL ENERGY               -7.871650595288 Eh   |
          | TOTAL ENTHALPY             -7.834666502252 Eh   |
          | TOTAL FREE ENERGY          -7.859680319274 Eh   |
          | GRADIENT NORM               0.000368752465 Eh/α |
          | HOMO-LUMO GAP              10.720673203115 eV   |
           -------------------------------------------------

 * finished run on 2025/10/17 at 22:29:33.373
normal termination of xtb
