   * xtb version 6.7.1 (edcfbbe) compiled by 'albert@albert-system' on 2024-07-22

   ID    Z sym.   atoms
    1    8 O      1, 6
    2    6 C      2
    3    1 H      3-5, 7, 8

          program call               : xtb tb_lite_results_shiftn0p25_gp49_b0_rot90_complex.xyz --ohess --chrg -1 --alpb water
      * Solvation model:               ALPB
        Solvent                        water
        Solvent mass                       1.8000E+01 g/mol
          :  Hamiltonian                  GFN2-xTB          :
 * total energy  :   -13.0871901 Eh     change       -0.2398970E-10 Eh
 * total energy  :   -13.0912225 Eh     change       -0.4032330E-02 Eh
 * total energy  :   -13.0914913 Eh     change       -0.2688735E-03 Eh
 * total energy  :   -13.0915926 Eh     change       -0.1013154E-03 Eh
 * total energy  :   -13.0917353 Eh     change       -0.1426737E-03 Eh
 * total energy  :   -13.0917803 Eh     change       -0.4494132E-04 Eh
 * total energy  :   -13.0918072 Eh     change       -0.2693489E-04 Eh
 * total energy  :   -13.0918597 Eh     change       -0.5254962E-04 Eh
 * total energy  :   -13.0919135 Eh     change       -0.5376974E-04 Eh
 * total energy  :   -13.0919712 Eh     change       -0.5768139E-04 Eh
 * total energy  :   -13.0925158 Eh     change       -0.2096772E-03 Eh
 * total energy  :   -13.0925301 Eh     change       -0.1430004E-04 Eh
 * total energy  :   -13.0925126 Eh     change        0.1751788E-04 Eh
 * total energy  :   -13.0925467 Eh     change       -0.3410209E-04 Eh
 * total energy  :   -13.0925523 Eh     change       -0.5589928E-05 Eh
 * total energy  :   -13.0925699 Eh     change       -0.1759844E-04 Eh
 * total energy  :   -13.0925691 Eh     change        0.7091656E-06 Eh
 * total energy  :   -13.0925895 Eh     change       -0.2039535E-04 Eh
 * total energy  :   -13.0925935 Eh     change       -0.3914123E-05 Eh
   *** GEOMETRY OPTIMIZATION CONVERGED AFTER 44 ITERATIONS ***

 final structure:
================
8
 xtb: 6.7.1 (edcfbbe)
O           -1.86330579012485        3.90524617592576       -1.62605395417589
C           -1.54234474512682        3.36858230260353       -0.43426299285499
H           -1.52559049059485        2.25192508313599       -0.45186854299283
H           -0.53782539682881        3.68828473362458       -0.06968698470828
H           -2.26964908081045        3.65647224792183        0.35947271172663
O           -0.05121954676897        3.35462845090401       -3.35564153716855
H           -0.75563772209045        3.61146001999189       -2.65993971077063
H           -0.55911504820328        2.92958626733802       -4.05391603308011

          :  Hamiltonian                  GFN2-xTB          :
         :: gradient norm              0.000411684602 Eh/a0 ::
         :: HOMO-LUMO gap             12.344138896094 eV    ::
         :: SCC energy               -13.172777829663 Eh    ::
         :: -> dispersion             -0.002729627640 Eh    ::
         :: -> Gsolv                  -0.121380126865 Eh    ::
         :: repulsion energy           0.080184379000 Eh    ::

    * Orbital Energies and Occupations

         #    Occupation            Energy/Eh            Energy/eV
      -------------------------------------------------------------
         1        2.0000           -0.6405316             -17.4298
         2        2.0000           -0.6141449             -16.7117
         3        2.0000           -0.5703257             -15.5194
         4        2.0000           -0.5199957             -14.1498
         5        2.0000           -0.4875748             -13.2676
         6        2.0000           -0.4848433             -13.1933
         7        2.0000           -0.4725977             -12.8600
         8        2.0000           -0.4491574             -12.2222
         9        2.0000           -0.4043987             -11.0042
        10        2.0000           -0.3301757              -8.9845
        11        2.0000           -0.3295798              -8.9683 (HOMO)
        12                          0.1240593               3.3758 (LUMO)
        13                          0.1374636               3.7406
        14                          0.1788254               4.8661
        15                          0.1825272               4.9668
        16                          0.2474322               6.7330
        17                          0.3240370               8.8175
      -------------------------------------------------------------
                  HL-Gap            0.4536391 Eh           12.3441 eV

     #   Z          covCN         q      C6AA      α(0)
     1   8 O        0.862    -0.833    32.601     7.655
     2   6 C        3.616     0.159    18.468     6.201
     3   1 H        0.920    -0.074     4.726     3.400
     4   1 H        0.921    -0.074     4.720     3.398
     5   1 H        0.921    -0.072     4.678     3.383
     6   8 O        1.598    -0.732    28.572     7.214
     7   1 H        0.801     0.294     0.740     1.352
     8   1 H        0.805     0.331     0.635     1.251

Wiberg/Mayer (AO) data.
largest (>0.10) Wiberg bond orders for each atom

     #   Z sym  total        # sym  WBO       # sym  WBO       # sym  WBO
 ---------------------------------------------------------------------------
     1   8 O    1.411 --     2 C    1.109     7 H    0.137
     2   6 C    3.987 --     1 O    1.109     5 H    0.960     4 H    0.958
                             3 H    0.957
     3   1 H    0.995 --     2 C    0.957
     4   1 H    0.995 --     2 C    0.958
     5   1 H    0.995 --     2 C    0.960
     6   8 O    1.730 --     8 H    0.890     7 H    0.774
     7   1 H    0.914 --     6 O    0.774     1 O    0.137
     8   1 H    0.890 --     6 O    0.890
 ---------------------------------------------------------------------------

molecular dipole:
                 x           y           z       tot (Debye)
 q only:        2.368      -7.259       3.079
   full:        2.244      -7.409       3.361      21.451

 projected vibrational frequencies (cm⁻¹)
eigval :       -0.00    -0.00    -0.00     0.00     0.00     0.00
eigval :       84.86    95.05   127.21   341.41   611.17   986.45
eigval :     1072.38  1170.28  1175.14  1443.85  1514.66  1517.78
eigval :     1554.19  2332.80  2552.86  2577.66  2718.46  3618.29

   temp. (K)  partition function   enthalpy   heat capacity  entropy
                                   cal/mol     cal/K/mol   cal/K/mol   J/K/mol
 298.15  VIB   23.6                 1782.410      9.690     12.125
         ROT  0.301E+05              888.752      2.981     23.472
         INT  0.710E+06             2671.162     12.671     35.596
         TR   0.332E+27             1481.254      4.968     37.578
         TOT                        4152.4159    17.6390    73.1738   306.1593

       T/K    H(0)-H(T)+PV         H(T)/Eh          T*S/Eh         G(T)/Eh
   ------------------------------------------------------------------------
    298.15    0.661730E-02    0.646980E-01    0.347673E-01    0.299308E-01
   ------------------------------------------------------------------------

         :::::::::::::::::::::::::::::::::::::::::::::::::::::
         ::                  THERMODYNAMIC                  ::
         :::::::::::::::::::::::::::::::::::::::::::::::::::::
         :: total free energy         -13.062662693318 Eh   ::
         ::.................................................::
         :: total energy              -13.092593450933 Eh   ::
         :: zero point energy           0.058080711656 Eh   ::
         :: G(RRHO) w/o ZPVE           -0.028149954041 Eh   ::
         :: G(RRHO) contrib.            0.029930757615 Eh   ::
         :::::::::::::::::::::::::::::::::::::::::::::::::::::

           -------------------------------------------------
          | TOTAL ENERGY              -13.092593450933 Eh   |
          | TOTAL ENTHALPY            -13.027895443269 Eh   |
          | TOTAL FREE ENERGY         -13.062662693318 Eh   |
          | GRADIENT NORM               0.000411710477 Eh/α |
          | HOMO-LUMO GAP              12.344149203508 eV   |
           -------------------------------------------------

 * finished run on 2025/10/17 at 22:29:50.113
normal termination of xtb
