   * xtb version 6.7.1 (edcfbbe) compiled by 'albert@albert-system' on 2024-07-22

   ID    Z sym.   atoms
    1    8 O      1, 6
    2    6 C      2
    3    1 H      3-5, 7, 8

          program call               : xtb tb_lite_results_shiftn0p25_gp61_b0_rot270_complex.xyz --ohess --chrg -1 --alpb water
      * Solvation model:               ALPB
        Solvent                        water
        Solvent mass                       1.8000E+01 g/mol
          :  Hamiltonian                  GFN2-xTB          :
 * total energy  :   -13.0882008 Eh     change       -0.5026912E-10 Eh
 * total energy  :   -13.0921661 Eh     change       -0.3965369E-02 Eh
 * total energy  :   -13.0924140 Eh     change       -0.2478548E-03 Eh
 * total energy  :   -13.0924975 Eh     change       -0.8347444E-04 Eh
 * total energy  :   -13.0926040 Eh     change       -0.1065953E-03 Eh
 * total energy  :   -13.0926273 Eh     change       -0.2320813E-04 Eh
 * total energy  :   -13.0926377 Eh     change       -0.1043219E-04 Eh
 * total energy  :   -13.0926552 Eh     change       -0.1749609E-04 Eh
 * total energy  :   -13.0926649 Eh     change       -0.9742495E-05 Eh
 * total energy  :   -13.0926798 Eh     change       -0.1483894E-04 Eh
 * total energy  :   -13.0927003 Eh     change       -0.2050186E-04 Eh
 * total energy  :   -13.0927167 Eh     change       -0.1648067E-04 Eh
 * total energy  :   -13.0927375 Eh     change       -0.2077782E-04 Eh
 * total energy  :   -13.0927620 Eh     change       -0.2449494E-04 Eh
 * total energy  :   -13.0927759 Eh     change       -0.1388034E-04 Eh
 * total energy  :   -13.0927649 Eh     change        0.1095112E-04 Eh
 * total energy  :   -13.0927838 Eh     change       -0.1885248E-04 Eh
 * total energy  :   -13.0927849 Eh     change       -0.1085589E-05 Eh
 * total energy  :   -13.0927853 Eh     change       -0.4174496E-06 Eh
   *** GEOMETRY OPTIMIZATION CONVERGED AFTER 19 ITERATIONS ***

 final structure:
================
8
 xtb: 6.7.1 (edcfbbe)
O           -1.24857449397475        4.13550550992413       -1.55798391204935
C           -1.47064228991242        3.36015639765827       -0.48146898152820
H           -2.18464526160590        2.52674219098734       -0.68677218867900
H           -0.53212468097710        2.88441446260072       -0.11341059503095
H           -1.89515764855342        3.92612605429279        0.38159392267672
O           -3.38589765093698        5.31303046702581       -2.34921099407613
H           -2.54370229168828        4.84188962870381       -2.01158831328217
H           -3.13045000842515        5.64494361715055       -3.21542344273468

          :  Hamiltonian                  GFN2-xTB          :
         :: gradient norm              0.000384306528 Eh/a0 ::
         :: HOMO-LUMO gap             12.369139435355 eV    ::
         :: SCC energy               -13.173079810685 Eh    ::
         :: -> dispersion             -0.002711782192 Eh    ::
         :: -> Gsolv                  -0.121455169587 Eh    ::
         :: repulsion energy           0.080294507284 Eh    ::

    * Orbital Energies and Occupations

         #    Occupation            Energy/Eh            Energy/eV
      -------------------------------------------------------------
         1        2.0000           -0.6404525             -17.4276
         2        2.0000           -0.6140334             -16.7087
         3        2.0000           -0.5704024             -15.5214
         4        2.0000           -0.5199314             -14.1481
         5        2.0000           -0.4869789             -13.2514
         6        2.0000           -0.4849895             -13.1972
         7        2.0000           -0.4733726             -12.8811
         8        2.0000           -0.4490853             -12.2202
         9        2.0000           -0.4044467             -11.0056
        10        2.0000           -0.3301353              -8.9834
        11        2.0000           -0.3295049              -8.9663 (HOMO)
        12                          0.1250525               3.4029 (LUMO)
        13                          0.1369276               3.7260
        14                          0.1789857               4.8704
        15                          0.1821407               4.9563
        16                          0.2485610               6.7637
        17                          0.3250896               8.8461
      -------------------------------------------------------------
                  HL-Gap            0.4545573 Eh           12.3691 eV

     #   Z          covCN         q      C6AA      α(0)
     1   8 O        0.862    -0.832    32.570     7.652
     2   6 C        3.616     0.159    18.463     6.200
     3   1 H        0.920    -0.075     4.756     3.411
     4   1 H        0.921    -0.072     4.669     3.379
     5   1 H        0.921    -0.074     4.745     3.407
     6   8 O        1.598    -0.732    28.571     7.214
     7   1 H        0.801     0.293     0.743     1.354
     8   1 H        0.805     0.332     0.632     1.249

Wiberg/Mayer (AO) data.
largest (>0.10) Wiberg bond orders for each atom

     #   Z sym  total        # sym  WBO       # sym  WBO       # sym  WBO
 ---------------------------------------------------------------------------
     1   8 O    1.411 --     2 C    1.110     7 H    0.137
     2   6 C    3.987 --     1 O    1.110     4 H    0.960     5 H    0.957
                             3 H    0.957
     3   1 H    0.994 --     2 C    0.957
     4   1 H    0.995 --     2 C    0.960
     5   1 H    0.994 --     2 C    0.957
     6   8 O    1.730 --     8 H    0.889     7 H    0.775
     7   1 H    0.914 --     6 O    0.775     1 O    0.137
     8   1 H    0.890 --     6 O    0.889
 ---------------------------------------------------------------------------

molecular dipole:
                 x           y           z       tot (Debye)
 q only:        3.475      -7.911       2.479
   full:        3.603      -8.119       2.650      23.560

 projected vibrational frequencies (cm⁻¹)
eigval :       -0.00    -0.00     0.00     0.00     0.00     0.00
eigval :       54.60   100.18   114.64   336.87   618.16   955.58
eigval :     1074.36  1170.77  1175.43  1443.36  1512.88  1517.94
eigval :     1563.11  2339.04  2554.27  2573.84  2716.80  3618.61

   temp. (K)  partition function   enthalpy   heat capacity  entropy
                                   cal/mol     cal/K/mol   cal/K/mol   J/K/mol
 298.15  VIB   35.7                 1832.916      9.440     12.707
         ROT  0.299E+05              888.752      2.981     23.459
         INT  0.106E+07             2721.668     12.421     36.165
         TR   0.332E+27             1481.254      4.968     37.578
         TOT                        4202.9222    17.3890    73.7429   308.5405

       T/K    H(0)-H(T)+PV         H(T)/Eh          T*S/Eh         G(T)/Eh
   ------------------------------------------------------------------------
    298.15    0.669778E-02    0.646554E-01    0.350377E-01    0.296177E-01
   ------------------------------------------------------------------------

         :::::::::::::::::::::::::::::::::::::::::::::::::::::
         ::                  THERMODYNAMIC                  ::
         :::::::::::::::::::::::::::::::::::::::::::::::::::::
         :: total free energy         -13.063167590896 Eh   ::
         ::.................................................::
         :: total energy              -13.092785303553 Eh   ::
         :: zero point energy           0.057957582729 Eh   ::
         :: G(RRHO) w/o ZPVE           -0.028339870072 Eh   ::
         :: G(RRHO) contrib.            0.029617712657 Eh   ::
         :::::::::::::::::::::::::::::::::::::::::::::::::::::

           -------------------------------------------------
          | TOTAL ENERGY              -13.092785303553 Eh   |
          | TOTAL ENTHALPY            -13.028129937939 Eh   |
          | TOTAL FREE ENERGY         -13.063167590896 Eh   |
          | GRADIENT NORM               0.000384165827 Eh/α |
          | HOMO-LUMO GAP              12.369134910885 eV   |
           -------------------------------------------------

 * finished run on 2025/10/17 at 22:29:45.495
normal termination of xtb
