   * xtb version 6.7.1 (edcfbbe) compiled by 'albert@albert-system' on 2024-07-22

   ID    Z sym.   atoms
    1    8 O      1, 6
    2    6 C      2
    3    1 H      3-5, 7, 8

          program call               : xtb tb_lite_results_shiftn0p25_gp49_b0_rot270_complex.xyz --ohess --chrg -1 --alpb water
      * Solvation model:               ALPB
        Solvent                        water
        Solvent mass                       1.8000E+01 g/mol
          :  Hamiltonian                  GFN2-xTB          :
 * total energy  :   -13.0881057 Eh     change       -0.2696154E-10 Eh
 * total energy  :   -13.0921064 Eh     change       -0.4000747E-02 Eh
 * total energy  :   -13.0923652 Eh     change       -0.2587145E-03 Eh
 * total energy  :   -13.0924587 Eh     change       -0.9351956E-04 Eh
 * total energy  :   -13.0925482 Eh     change       -0.8950050E-04 Eh
 * total energy  :   -13.0925605 Eh     change       -0.1231781E-04 Eh
 * total energy  :   -13.0925675 Eh     change       -0.6968390E-05 Eh
 * total energy  :   -13.0925750 Eh     change       -0.7514353E-05 Eh
 * total energy  :   -13.0925788 Eh     change       -0.3841551E-05 Eh
   *** GEOMETRY OPTIMIZATION CONVERGED AFTER 9 ITERATIONS ***

 final structure:
================
8
 xtb: 6.7.1 (edcfbbe)
O           -1.13772597716323        4.35412482866370       -1.30676323020013
C           -1.47907855892163        3.35802539120814       -0.46804056220163
H           -2.33933437610845        2.75186123894644       -0.84155195605866
H           -0.64627408305263        2.63685249514136       -0.28872718536547
H           -1.78149357821207        3.74432026122856        0.53274944837436
O           -0.21240138695743        3.36952892870560       -3.48598999891351
H           -0.62292912822495        3.76642138225104       -2.63657099796243
H            0.65108882100690        3.79114364734532       -3.54374512671758

          :  Hamiltonian                  GFN2-xTB          :
         :: gradient norm              0.000743694170 Eh/a0 ::
         :: HOMO-LUMO gap             12.333948977278 eV    ::
         :: SCC energy               -13.172561017997 Eh    ::
         :: -> dispersion             -0.002732081785 Eh    ::
         :: -> Gsolv                  -0.121267511071 Eh    ::
         :: repulsion energy           0.079982195137 Eh    ::

    * Orbital Energies and Occupations

         #    Occupation            Energy/Eh            Energy/eV
      -------------------------------------------------------------
         1        2.0000           -0.6404528             -17.4276
         2        2.0000           -0.6141801             -16.7127
         3        2.0000           -0.5702679             -15.5178
         4        2.0000           -0.5198826             -14.1467
         5        2.0000           -0.4876448             -13.2695
         6        2.0000           -0.4848882             -13.1945
         7        2.0000           -0.4724764             -12.8567
         8        2.0000           -0.4492281             -12.2241
         9        2.0000           -0.4043168             -11.0020
        10        2.0000           -0.3302943              -8.9878
        11        2.0000           -0.3296749              -8.9709 (HOMO)
        12                          0.1235894               3.3630 (LUMO)
        13                          0.1374487               3.7402
        14                          0.1784522               4.8559
        15                          0.1822799               4.9601
        16                          0.2469185               6.7190
        17                          0.3226901               8.7808
      -------------------------------------------------------------
                  HL-Gap            0.4532642 Eh           12.3339 eV

     #   Z          covCN         q      C6AA      α(0)
     1   8 O        0.862    -0.833    32.588     7.654
     2   6 C        3.615     0.159    18.473     6.202
     3   1 H        0.920    -0.076     4.783     3.420
     4   1 H        0.920    -0.071     4.661     3.376
     5   1 H        0.921    -0.072     4.665     3.378
     6   8 O        1.598    -0.732    28.575     7.214
     7   1 H        0.801     0.294     0.740     1.352
     8   1 H        0.805     0.330     0.636     1.253

Wiberg/Mayer (AO) data.
largest (>0.10) Wiberg bond orders for each atom

     #   Z sym  total        # sym  WBO       # sym  WBO       # sym  WBO
 ---------------------------------------------------------------------------
     1   8 O    1.412 --     2 C    1.109     7 H    0.138
     2   6 C    3.987 --     1 O    1.109     5 H    0.960     4 H    0.958
                             3 H    0.957
     3   1 H    0.994 --     2 C    0.957
     4   1 H    0.995 --     2 C    0.958
     5   1 H    0.995 --     2 C    0.960
     6   8 O    1.730 --     8 H    0.890     7 H    0.774
     7   1 H    0.914 --     6 O    0.774     1 O    0.138
     8   1 H    0.891 --     6 O    0.890
 ---------------------------------------------------------------------------

molecular dipole:
                 x           y           z       tot (Debye)
 q only:        2.363      -7.300       3.146
   full:        2.353      -7.398       3.472      21.617

 projected vibrational frequencies (cm⁻¹)
eigval :       -0.00    -0.00     0.00     0.00     0.00     0.00
eigval :       80.07   113.68   138.23   341.21   601.68   984.77
eigval :     1071.41  1170.61  1175.32  1443.34  1513.67  1518.10
eigval :     1545.05  2323.19  2552.90  2574.74  2716.21  3609.01

   temp. (K)  partition function   enthalpy   heat capacity  entropy
                                   cal/mol     cal/K/mol   cal/K/mol   J/K/mol
 298.15  VIB   20.4                 1757.388      9.709     11.756
         ROT  0.301E+05              888.752      2.981     23.472
         INT  0.613E+06             2646.141     12.690     35.227
         TR   0.332E+27             1481.254      4.968     37.578
         TOT                        4127.3946    17.6583    72.8047   304.6150

       T/K    H(0)-H(T)+PV         H(T)/Eh          T*S/Eh         G(T)/Eh
   ------------------------------------------------------------------------
    298.15    0.657742E-02    0.646096E-01    0.345919E-01    0.300178E-01
   ------------------------------------------------------------------------

         :::::::::::::::::::::::::::::::::::::::::::::::::::::
         ::                  THERMODYNAMIC                  ::
         :::::::::::::::::::::::::::::::::::::::::::::::::::::
         :: total free energy         -13.062561048841 Eh   ::
         ::.................................................::
         :: total energy              -13.092578821247 Eh   ::
         :: zero point energy           0.058032223326 Eh   ::
         :: G(RRHO) w/o ZPVE           -0.028014450920 Eh   ::
         :: G(RRHO) contrib.            0.030017772406 Eh   ::
         :::::::::::::::::::::::::::::::::::::::::::::::::::::

           -------------------------------------------------
          | TOTAL ENERGY              -13.092578821247 Eh   |
          | TOTAL ENTHALPY            -13.027969175952 Eh   |
          | TOTAL FREE ENERGY         -13.062561048841 Eh   |
          | GRADIENT NORM               0.000743706531 Eh/α |
          | HOMO-LUMO GAP              12.333947553746 eV   |
           -------------------------------------------------

 * finished run on 2025/10/17 at 22:29:43.591
normal termination of xtb
