   * xtb version 6.7.1 (edcfbbe) compiled by 'albert@albert-system' on 2024-07-22

   ID    Z sym.   atoms
    1    8 O      1, 6
    2    6 C      2
    3    1 H      3-5, 7, 8

          program call               : xtb tb_lite_results_shiftn0p25_gp61_b0_rot0_complex.xyz --ohess --chrg -1 --alpb water
      * Solvation model:               ALPB
        Solvent                        water
        Solvent mass                       1.8000E+01 g/mol
          :  Hamiltonian                  GFN2-xTB          :
 * total energy  :   -13.0882634 Eh     change       -0.2346034E-10 Eh
 * total energy  :   -13.0921429 Eh     change       -0.3879554E-02 Eh
 * total energy  :   -13.0923746 Eh     change       -0.2317266E-03 Eh
 * total energy  :   -13.0924625 Eh     change       -0.8782504E-04 Eh
 * total energy  :   -13.0925569 Eh     change       -0.9440416E-04 Eh
 * total energy  :   -13.0925828 Eh     change       -0.2593899E-04 Eh
 * total energy  :   -13.0925934 Eh     change       -0.1058288E-04 Eh
 * total energy  :   -13.0926129 Eh     change       -0.1954835E-04 Eh
 * total energy  :   -13.0926212 Eh     change       -0.8215762E-05 Eh
 * total energy  :   -13.0926310 Eh     change       -0.9810065E-05 Eh
 * total energy  :   -13.0926424 Eh     change       -0.1148119E-04 Eh
 * total energy  :   -13.0926572 Eh     change       -0.1475075E-04 Eh
 * total energy  :   -13.0926748 Eh     change       -0.1757264E-04 Eh
 * total energy  :   -13.0926858 Eh     change       -0.1105312E-04 Eh
 * total energy  :   -13.0926948 Eh     change       -0.8998763E-05 Eh
 * total energy  :   -13.0927021 Eh     change       -0.7303153E-05 Eh
 * total energy  :   -13.0927058 Eh     change       -0.3656492E-05 Eh
   *** GEOMETRY OPTIMIZATION CONVERGED AFTER 17 ITERATIONS ***

 final structure:
================
8
 xtb: 6.7.1 (edcfbbe)
O           -1.20869488470863        4.29544090694552       -1.41733057616785
C           -1.49908948109044        3.36381130855246       -0.49163830077916
H           -2.13529869799138        2.53794066325386       -0.89033748910393
H           -0.57859104878838        2.88465914887721       -0.08415111857479
H           -2.04772717966949        3.78100031137154        0.38624117998575
O           -3.34646789518610        5.41761741264805       -2.28409378952775
H           -2.50178977824794        4.94268505895834       -1.95799809751058
H           -3.07353536012287        6.33665352219127       -2.36795630845418

          :  Hamiltonian                  GFN2-xTB          :
         :: gradient norm              0.000846211432 Eh/a0 ::
         :: HOMO-LUMO gap             12.363216612178 eV    ::
         :: SCC energy               -13.172974229991 Eh    ::
         :: -> dispersion             -0.002722669566 Eh    ::
         :: -> Gsolv                  -0.121423039266 Eh    ::
         :: repulsion energy           0.080268447912 Eh    ::

    * Orbital Energies and Occupations

         #    Occupation            Energy/Eh            Energy/eV
      -------------------------------------------------------------
         1        2.0000           -0.6405522             -17.4303
         2        2.0000           -0.6142032             -16.7133
         3        2.0000           -0.5703694             -15.5205
         4        2.0000           -0.5199114             -14.1475
         5        2.0000           -0.4873353             -13.2611
         6        2.0000           -0.4850086             -13.1978
         7        2.0000           -0.4730671             -12.8728
         8        2.0000           -0.4492494             -12.2247
         9        2.0000           -0.4044750             -11.0063
        10        2.0000           -0.3301981              -8.9851
        11        2.0000           -0.3295928              -8.9687 (HOMO)
        12                          0.1247470               3.3945 (LUMO)
        13                          0.1373548               3.7376
        14                          0.1790949               4.8734
        15                          0.1820136               4.9528
        16                          0.2483394               6.7577
        17                          0.3243631               8.8264
      -------------------------------------------------------------
                  HL-Gap            0.4543398 Eh           12.3632 eV

     #   Z          covCN         q      C6AA      α(0)
     1   8 O        0.862    -0.832    32.581     7.653
     2   6 C        3.616     0.159    18.461     6.200
     3   1 H        0.921    -0.075     4.765     3.414
     4   1 H        0.921    -0.072     4.677     3.382
     5   1 H        0.921    -0.073     4.718     3.397
     6   8 O        1.598    -0.731    28.569     7.213
     7   1 H        0.801     0.293     0.742     1.354
     8   1 H        0.805     0.332     0.633     1.249

Wiberg/Mayer (AO) data.
largest (>0.10) Wiberg bond orders for each atom

     #   Z sym  total        # sym  WBO       # sym  WBO       # sym  WBO
 ---------------------------------------------------------------------------
     1   8 O    1.411 --     2 C    1.110     7 H    0.137
     2   6 C    3.987 --     1 O    1.110     4 H    0.960     5 H    0.957
                             3 H    0.957
     3   1 H    0.994 --     2 C    0.957
     4   1 H    0.995 --     2 C    0.960
     5   1 H    0.995 --     2 C    0.957
     6   8 O    1.731 --     8 H    0.889     7 H    0.775
     7   1 H    0.914 --     6 O    0.775     1 O    0.137
     8   1 H    0.890 --     6 O    0.889
 ---------------------------------------------------------------------------

molecular dipole:
                 x           y           z       tot (Debye)
 q only:        3.428      -7.798       2.753
   full:        3.544      -7.949       3.011      23.407

 projected vibrational frequencies (cm⁻¹)
eigval :       -0.00    -0.00    -0.00    -0.00     0.00     0.00
eigval :       65.59    97.89   130.08   338.33   602.70   981.06
eigval :     1074.77  1171.00  1175.70  1443.55  1512.84  1518.52
eigval :     1556.01  2338.09  2555.48  2572.79  2716.49  3616.19

   temp. (K)  partition function   enthalpy   heat capacity  entropy
                                   cal/mol     cal/K/mol   cal/K/mol   J/K/mol
 298.15  VIB   28.3                 1805.279      9.589     12.395
         ROT  0.300E+05              888.752      2.981     23.466
         INT  0.848E+06             2694.032     12.570     35.860
         TR   0.332E+27             1481.254      4.968     37.578
         TOT                        4175.2856    17.5385    73.4379   307.2640

       T/K    H(0)-H(T)+PV         H(T)/Eh          T*S/Eh         G(T)/Eh
   ------------------------------------------------------------------------
    298.15    0.665374E-02    0.646720E-01    0.348927E-01    0.297793E-01
   ------------------------------------------------------------------------

         :::::::::::::::::::::::::::::::::::::::::::::::::::::
         ::                  THERMODYNAMIC                  ::
         :::::::::::::::::::::::::::::::::::::::::::::::::::::
         :: total free energy         -13.062926477297 Eh   ::
         ::.................................................::
         :: total energy              -13.092705781772 Eh   ::
         :: zero point energy           0.058018265077 Eh   ::
         :: G(RRHO) w/o ZPVE           -0.028238960602 Eh   ::
         :: G(RRHO) contrib.            0.029779304475 Eh   ::
         :::::::::::::::::::::::::::::::::::::::::::::::::::::

           -------------------------------------------------
          | TOTAL ENERGY              -13.092705781772 Eh   |
          | TOTAL ENTHALPY            -13.028033775522 Eh   |
          | TOTAL FREE ENERGY         -13.062926477297 Eh   |
          | GRADIENT NORM               0.000846226884 Eh/α |
          | HOMO-LUMO GAP              12.363215687325 eV   |
           -------------------------------------------------

 * finished run on 2025/10/17 at 22:29:38.515
normal termination of xtb
