   * xtb version 6.7.1 (edcfbbe) compiled by 'albert@albert-system' on 2024-07-22

   ID    Z sym.   atoms
    1    8 O      1, 2
    2    1 H      3

          program call               : xtb xyz.xyz --alpb water --charge -1 --ohess
      * Solvation model:               ALPB
        Solvent                        water
        Solvent mass                       1.8000E+01 g/mol
          :  Hamiltonian                  GFN2-xTB          :
 * total energy  :    -8.8474752 Eh     change       -0.1563194E-12 Eh
 * total energy  :    -8.8493266 Eh     change       -0.1851394E-02 Eh
 * total energy  :    -8.8498312 Eh     change       -0.5046064E-03 Eh
 * total energy  :    -8.8498461 Eh     change       -0.1491473E-04 Eh
 * total energy  :    -8.8498475 Eh     change       -0.1389443E-05 Eh
   *** GEOMETRY OPTIMIZATION CONVERGED AFTER 5 ITERATIONS ***

 final structure:
================
3
 xtb: 6.7.1 (edcfbbe)
O           -2.95384498590147       -4.48771015877158        2.78855863332138
O           -4.17006938158289       -5.22093988699235        2.54651897051680
H           -2.39603563251564       -4.77638095423607        2.05060539616182

          :  Hamiltonian                  GFN2-xTB          :
         :: gradient norm              0.000784258493 Eh/a0 ::
         :: HOMO-LUMO gap              6.929171627937 eV    ::
         :: SCC energy                -8.865946202008 Eh    ::
         :: -> dispersion             -0.000472805623 Eh    ::
         :: -> Gsolv                  -0.147604154544 Eh    ::
         :: repulsion energy           0.016098727412 Eh    ::

    * Orbital Energies and Occupations

         #    Occupation            Energy/Eh            Energy/eV
      -------------------------------------------------------------
         1        2.0000           -0.6550089             -17.8237
         2        2.0000           -0.5899212             -16.0526
         3        2.0000           -0.5269444             -14.3389
         4        2.0000           -0.4743697             -12.9083
         5        2.0000           -0.4541573             -12.3582
         6        2.0000           -0.3374348              -9.1821
         7        2.0000           -0.3223051              -8.7704 (HOMO)
         8                         -0.0676626              -1.8412 (LUMO)
         9                          0.1778188               4.8387
      -------------------------------------------------------------
                  HL-Gap            0.2546424 Eh            6.9292 eV

     #   Z          covCN         q      C6AA      α(0)
     1   8 O        1.721    -0.523    23.376     6.528
     2   8 O        0.917    -0.816    32.037     7.590
     3   1 H        0.804     0.340     0.613     1.230

Wiberg/Mayer (AO) data.
largest (>0.10) Wiberg bond orders for each atom

     #   Z sym  total        # sym  WBO       # sym  WBO       # sym  WBO
 ---------------------------------------------------------------------------
     1   8 O    1.851 --     2 O    0.969     3 H    0.882
     2   8 O    0.972 --     1 O    0.969
     3   1 H    0.885 --     1 O    0.882
 ---------------------------------------------------------------------------

molecular dipole:
                 x           y           z       tot (Debye)
 q only:        7.816       9.426      -5.370
   full:        7.952       9.405      -5.483      34.267

 projected vibrational frequencies (cm⁻¹)
eigval :       -0.00    -0.00     0.00     0.00     0.00     0.00
eigval :     1072.43  1188.58  3481.04

   temp. (K)  partition function   enthalpy   heat capacity  entropy
                                   cal/mol     cal/K/mol   cal/K/mol   J/K/mol
 298.15  VIB   1.01                   28.447      0.517      0.113
         ROT  0.125E+04              888.752      2.981     17.149
         INT  0.126E+04              917.199      3.498     17.262
         TR   0.183E+27             1481.254      4.968     36.397
         TOT                        2398.4534     8.4659    53.6597   224.5123

       T/K    H(0)-H(T)+PV         H(T)/Eh          T*S/Eh         G(T)/Eh
   ------------------------------------------------------------------------
    298.15    0.382218E-02    0.169035E-01    0.254955E-01   -0.859195E-02
   ------------------------------------------------------------------------

         :::::::::::::::::::::::::::::::::::::::::::::::::::::
         ::                  THERMODYNAMIC                  ::
         :::::::::::::::::::::::::::::::::::::::::::::::::::::
         :: total free energy          -8.858439426048 Eh   ::
         ::.................................................::
         :: total energy               -8.849847473908 Eh   ::
         :: zero point energy           0.013081340073 Eh   ::
         :: G(RRHO) w/o ZPVE           -0.021673292212 Eh   ::
         :: G(RRHO) contrib.           -0.008591952140 Eh   ::
         :::::::::::::::::::::::::::::::::::::::::::::::::::::

           -------------------------------------------------
          | TOTAL ENERGY               -8.849847473908 Eh   |
          | TOTAL ENTHALPY             -8.832943955031 Eh   |
          | TOTAL FREE ENERGY          -8.858439426048 Eh   |
          | GRADIENT NORM               0.000784170772 Eh/α |
          | HOMO-LUMO GAP               6.929173640052 eV   |
           -------------------------------------------------

 * finished run on 2025/10/18 at 04:59:57.193
