   * xtb version 6.7.1 (edcfbbe) compiled by 'albert@albert-system' on 2024-07-22

   ID    Z sym.   atoms
    1    6 C      1, 2, 6, 8
    2    1 H      3-5, 7, 9, 10, 12-14, 16, 17
    3    8 O      11, 15

          program call               : xtb tb_lite_results_shiftn0p2_gp594_b0_rot90_complex.xyz --ohess --chrg -1 --alpb water
      * Solvation model:               ALPB
        Solvent                        water
        Solvent mass                       1.8000E+01 g/mol
          :  Hamiltonian                  GFN2-xTB          :
 * total energy  :   -22.5821432 Eh     change       -0.2495781E-10 Eh
 * total energy  :   -22.5855884 Eh     change       -0.3445185E-02 Eh
 * total energy  :   -22.5866136 Eh     change       -0.1025235E-02 Eh
 * total energy  :   -22.5871268 Eh     change       -0.5132161E-03 Eh
 * total energy  :   -22.5874132 Eh     change       -0.2863460E-03 Eh
 * total energy  :   -22.5875281 Eh     change       -0.1149699E-03 Eh
 * total energy  :   -22.5875760 Eh     change       -0.4789108E-04 Eh
 * total energy  :   -22.5875914 Eh     change       -0.1538480E-04 Eh
 * total energy  :   -22.5876024 Eh     change       -0.1094755E-04 Eh
 * total energy  :   -22.5876135 Eh     change       -0.1115965E-04 Eh
 * total energy  :   -22.5876229 Eh     change       -0.9346699E-05 Eh
 * total energy  :   -22.5876319 Eh     change       -0.9043890E-05 Eh
 * total energy  :   -22.5876408 Eh     change       -0.8902615E-05 Eh
 * total energy  :   -22.5876467 Eh     change       -0.5849452E-05 Eh
 * total energy  :   -22.5876479 Eh     change       -0.1192264E-05 Eh
 * total energy  :   -22.5876501 Eh     change       -0.2282854E-05 Eh
   *** GEOMETRY OPTIMIZATION CONVERGED AFTER 16 ITERATIONS ***

 final structure:
================
17
 xtb: 6.7.1 (edcfbbe)
C           -3.81385451877738       -4.06476048908237        1.87063456725718
C           -2.88117557869313       -3.10112235698700        2.64705585661171
H           -3.42234476104641       -4.21032992413022        0.86610915655298
H           -3.83123215967165       -5.02957418556163        2.37294914433456
H           -4.82226471491386       -3.66209029145449        1.81587436443273
C           -3.47837029848756       -2.89402233638805        4.06319742447226
H           -4.48073286767427       -2.47626312565845        4.00512776911139
C           -2.89795844443983       -1.73023694266186        1.92296051414561
H           -3.50900087463977       -3.84803827408409        4.58576392302398
H           -2.83167701611036       -2.21940066206264        4.62027592804000
O           -1.60599795226865       -3.62251183276861        2.70952354366238
H           -3.90465620412892       -1.32009564553239        1.88981689072287
H           -2.23963327215003       -1.04594395487958        2.45412681170652
H           -2.51816770919201       -1.85160980932090        0.91039800107266
O           -0.13637445929918       -2.04573730291656        3.97566545002325
H           -0.77874366217981       -2.71520191832650        3.41842909005140
H            0.61784629673125       -2.59947357135574        4.19481451753262

          :  Hamiltonian                  GFN2-xTB          :
         :: gradient norm              0.000255497286 Eh/a0 ::
         :: HOMO-LUMO gap             11.269606516918 eV    ::
         :: SCC energy               -22.809357268308 Eh    ::
         :: -> dispersion             -0.010288802543 Eh    ::
         :: -> Gsolv                  -0.111801492702 Eh    ::
         :: repulsion energy           0.221707119582 Eh    ::

    * Orbital Energies and Occupations

         #    Occupation            Energy/Eh            Energy/eV
      -------------------------------------------------------------
         1        2.0000           -0.6249736             -17.0064
       ...           ...                  ...                  ...
         8        2.0000           -0.4839020             -13.1676
         9        2.0000           -0.4809841             -13.0882
        10        2.0000           -0.4770758             -12.9819
        11        2.0000           -0.4617771             -12.5656
        12        2.0000           -0.4513616             -12.2822
        13        2.0000           -0.4512864             -12.2801
        14        2.0000           -0.4375203             -11.9055
        15        2.0000           -0.4209638             -11.4550
        16        2.0000           -0.4185248             -11.3886
        17        2.0000           -0.4097309             -11.1493
        18        2.0000           -0.3874830             -10.5439
        19        2.0000           -0.3174642              -8.6386
        20        2.0000           -0.3168849              -8.6229 (HOMO)
        21                          0.0972657               2.6467 (LUMO)
        22                          0.1181459               3.2149
        23                          0.1226337               3.3370
        24                          0.1252038               3.4070
        25                          0.1637789               4.4567
        26                          0.1707872               4.6474
        27                          0.2071975               5.6381
        28                          0.2076668               5.6509
        29                          0.2390754               6.5056
        30                          0.2396923               6.5224
        31                          0.2614426               7.1142
       ...                                ...                  ...
        35                          0.3448716               9.3844
      -------------------------------------------------------------
                  HL-Gap            0.4141506 Eh           11.2696 eV

     #   Z          covCN         q      C6AA      α(0)
     1   6 C        3.754    -0.105    22.561     6.773
     2   6 C        3.770     0.157    18.096     6.062
     3   1 H        0.925     0.017     2.785     2.610
     4   1 H        0.925     0.017     2.780     2.607
     5   1 H        0.925     0.018     2.761     2.598
     6   6 C        3.754    -0.107    22.605     6.780
     7   1 H        0.925     0.015     2.814     2.623
     8   6 C        3.754    -0.107    22.604     6.779
     9   1 H        0.925     0.015     2.815     2.624
    10   1 H        0.925     0.020     2.734     2.586
    11   8 O        0.937    -0.803    31.601     7.539
    12   1 H        0.925     0.015     2.809     2.621
    13   1 H        0.925     0.020     2.739     2.588
    14   1 H        0.925     0.014     2.821     2.627
    15   8 O        1.565    -0.776    29.855     7.373
    16   1 H        0.843     0.290     0.747     1.355
    17   1 H        0.805     0.301     0.719     1.332

Wiberg/Mayer (AO) data.
largest (>0.10) Wiberg bond orders for each atom

     #   Z sym  total        # sym  WBO       # sym  WBO       # sym  WBO
 ---------------------------------------------------------------------------
     1   6 C    3.997 --     3 H    0.989     4 H    0.989     5 H    0.989
                             2 C    0.971
     2   6 C    3.977 --    11 O    1.068     1 C    0.971     8 C    0.968
                             6 C    0.968
     3   1 H    1.000 --     1 C    0.989
     4   1 H    1.000 --     1 C    0.989
     5   1 H    0.999 --     1 C    0.989
     6   6 C    3.996 --     9 H    0.989     7 H    0.988    10 H    0.987
                             2 C    0.968
     7   1 H    1.000 --     6 C    0.988
     8   6 C    3.996 --    14 H    0.989    12 H    0.988    13 H    0.987
                             2 C    0.968
     9   1 H    1.000 --     6 C    0.989
    10   1 H    1.000 --     6 C    0.987
    11   8 O    1.519 --     2 C    1.068    16 H    0.234
    12   1 H    1.000 --     8 C    0.988
    13   1 H    1.000 --     8 C    0.987
    14   1 H    1.000 --     8 C    0.989
    15   8 O    1.684 --    17 H    0.908    16 H    0.674
    16   1 H    0.916 --    15 O    0.674    11 O    0.234
    17   1 H    0.910 --    15 O    0.908
 ---------------------------------------------------------------------------

molecular dipole:
                 x           y           z       tot (Debye)
 q only:        2.763       5.546      -5.733
   full:        2.649       5.475      -5.753      21.280

 projected vibrational frequencies (cm⁻¹)
eigval :       -0.00    -0.00    -0.00    -0.00     0.00     0.00
eigval :       56.17   102.10   108.51   167.50   227.46   241.32
eigval :      270.22   332.47   370.40   432.47   465.90   529.16
eigval :      698.18   773.84   900.41   907.42   934.38   952.50
eigval :     1013.84  1015.00  1094.29  1148.83  1185.55  1196.93
eigval :     1363.91  1366.53  1389.71  1451.32  1472.89  1485.55
eigval :     1489.56  1504.24  1505.82  1521.17  1609.21  2996.53
eigval :     2999.55  3006.17  3006.88  3012.35  3012.75  3022.41
eigval :     3024.67  3027.84  3639.69

   temp. (K)  partition function   enthalpy   heat capacity  entropy
                                   cal/mol     cal/K/mol   cal/K/mol   J/K/mol
 298.15  VIB   345.                 4032.908     25.643     24.640
         ROT  0.207E+06              888.752      2.981     27.302
         INT  0.714E+08             4921.660     28.624     51.942
         TR   0.842E+27             1481.254      4.968     39.423
         TOT                        6402.9143    33.5918    91.3655   382.2731

       T/K    H(0)-H(T)+PV         H(T)/Eh          T*S/Eh         G(T)/Eh
   ------------------------------------------------------------------------
    298.15    0.102037E-01    0.151527E+00    0.434107E-01    0.108116E+00
   ------------------------------------------------------------------------

         :::::::::::::::::::::::::::::::::::::::::::::::::::::
         ::                  THERMODYNAMIC                  ::
         :::::::::::::::::::::::::::::::::::::::::::::::::::::
         :: total free energy         -22.479534173048 Eh   ::
         ::.................................................::
         :: total energy              -22.587650148467 Eh   ::
         :: zero point energy           0.141322966474 Eh   ::
         :: G(RRHO) w/o ZPVE           -0.033206991055 Eh   ::
         :: G(RRHO) contrib.            0.108115975419 Eh   ::
         :::::::::::::::::::::::::::::::::::::::::::::::::::::

           -------------------------------------------------
          | TOTAL ENERGY              -22.587650148467 Eh   |
          | TOTAL ENTHALPY            -22.436123488625 Eh   |
          | TOTAL FREE ENERGY         -22.479534173048 Eh   |
          | GRADIENT NORM               0.000255433381 Eh/α |
          | HOMO-LUMO GAP              11.269612113581 eV   |
           -------------------------------------------------

 * finished run on 2025/10/18 at 02:28:03.153
normal termination of xtb
