   * xtb version 6.7.1 (edcfbbe) compiled by 'albert@albert-system' on 2024-07-22

   ID    Z sym.   atoms
    1    6 C      1, 2, 6, 8
    2    1 H      3-5, 7, 9, 10, 12-14, 16, 17
    3    8 O      11, 15

          program call               : xtb tb_lite_results_shiftn0p25_gp616_b0_rot0_complex.xyz --ohess --chrg -1 --alpb water
      * Solvation model:               ALPB
        Solvent                        water
        Solvent mass                       1.8000E+01 g/mol
          :  Hamiltonian                  GFN2-xTB          :
 * total energy  :   -22.5818564 Eh     change       -0.2609468E-10 Eh
 * total energy  :   -22.5856277 Eh     change       -0.3771276E-02 Eh
 * total energy  :   -22.5864242 Eh     change       -0.7964402E-03 Eh
 * total energy  :   -22.5868108 Eh     change       -0.3866656E-03 Eh
 * total energy  :   -22.5871794 Eh     change       -0.3685996E-03 Eh
 * total energy  :   -22.5873346 Eh     change       -0.1551922E-03 Eh
 * total energy  :   -22.5874385 Eh     change       -0.1038775E-03 Eh
 * total energy  :   -22.5874859 Eh     change       -0.4741720E-04 Eh
 * total energy  :   -22.5875045 Eh     change       -0.1858290E-04 Eh
 * total energy  :   -22.5875355 Eh     change       -0.3097278E-04 Eh
 * total energy  :   -22.5875714 Eh     change       -0.3591187E-04 Eh
 * total energy  :   -22.5875906 Eh     change       -0.1926656E-04 Eh
 * total energy  :   -22.5876126 Eh     change       -0.2199199E-04 Eh
 * total energy  :   -22.5876285 Eh     change       -0.1585125E-04 Eh
 * total energy  :   -22.5876355 Eh     change       -0.7030714E-05 Eh
 * total energy  :   -22.5876378 Eh     change       -0.2229669E-05 Eh
   *** GEOMETRY OPTIMIZATION CONVERGED AFTER 16 ITERATIONS ***

 final structure:
================
17
 xtb: 6.7.1 (edcfbbe)
C           -3.87154649644612       -4.06447141857267        1.89650710096240
C           -2.85756484027428       -3.07021606080313        2.51658593347685
H           -3.65168897899433       -4.18745769079929        0.83798660707472
H           -3.76567705184040       -5.03257342501559        2.38146494599444
H           -4.88954488938965       -3.70249676262070        2.01970469386868
C           -3.20901347241584       -2.89926011431011        4.01713103471956
H           -4.22014237630587       -2.51745048800394        4.13907082349848
C           -3.05310808872072       -1.69486038872019        1.82709152582470
H           -3.11640993583355       -3.85908677687627        4.52160081535769
H           -2.49862596194806       -2.20837657846738        4.46644596437268
O           -1.57157245489523       -3.53915732043360        2.34958614628160
H           -4.06810875798439       -1.33018126857627        1.96744876037974
H           -2.34656994860516       -0.98613486148552        2.25410309156366
H           -2.84192718965181       -1.78998493707985        0.76374811775829
O            0.03565758190096       -1.89568076214139        3.33224273930790
H           -0.67028413505690       -2.60691624424450        2.92359455311587
H            0.85768044839676       -2.13029994839157        2.89385493027212

          :  Hamiltonian                  GFN2-xTB          :
         :: gradient norm              0.000478715906 Eh/a0 ::
         :: HOMO-LUMO gap             11.274262599996 eV    ::
         :: SCC energy               -22.809261848429 Eh    ::
         :: -> dispersion             -0.010289568243 Eh    ::
         :: -> Gsolv                  -0.111758715351 Eh    ::
         :: repulsion energy           0.221624095159 Eh    ::

    * Orbital Energies and Occupations

         #    Occupation            Energy/Eh            Energy/eV
      -------------------------------------------------------------
         1        2.0000           -0.6250301             -17.0079
       ...           ...                  ...                  ...
         8        2.0000           -0.4838832             -13.1671
         9        2.0000           -0.4809950             -13.0885
        10        2.0000           -0.4771747             -12.9846
        11        2.0000           -0.4618621             -12.5679
        12        2.0000           -0.4514316             -12.2841
        13        2.0000           -0.4512512             -12.2792
        14        2.0000           -0.4375336             -11.9059
        15        2.0000           -0.4209644             -11.4550
        16        2.0000           -0.4185820             -11.3902
        17        2.0000           -0.4097690             -11.1504
        18        2.0000           -0.3875148             -10.5448
        19        2.0000           -0.3174791              -8.6390
        20        2.0000           -0.3169177              -8.6238 (HOMO)
        21                          0.0974038               2.6505 (LUMO)
        22                          0.1180753               3.2130
        23                          0.1224510               3.3321
        24                          0.1250524               3.4028
        25                          0.1638945               4.4598
        26                          0.1706969               4.6449
        27                          0.2070505               5.6341
        28                          0.2073881               5.6433
        29                          0.2387502               6.4967
        30                          0.2395720               6.5191
        31                          0.2612756               7.1097
       ...                                ...                  ...
        35                          0.3448346               9.3834
      -------------------------------------------------------------
                  HL-Gap            0.4143215 Eh           11.2743 eV

     #   Z          covCN         q      C6AA      α(0)
     1   6 C        3.754    -0.105    22.560     6.773
     2   6 C        3.770     0.157    18.096     6.062
     3   1 H        0.925     0.017     2.779     2.607
     4   1 H        0.925     0.017     2.785     2.610
     5   1 H        0.925     0.018     2.762     2.599
     6   6 C        3.754    -0.107    22.604     6.779
     7   1 H        0.925     0.015     2.807     2.620
     8   6 C        3.754    -0.107    22.606     6.780
     9   1 H        0.925     0.014     2.822     2.627
    10   1 H        0.925     0.019     2.741     2.589
    11   8 O        0.936    -0.803    31.603     7.539
    12   1 H        0.925     0.015     2.815     2.624
    13   1 H        0.925     0.020     2.733     2.585
    14   1 H        0.925     0.015     2.815     2.624
    15   8 O        1.565    -0.776    29.849     7.372
    16   1 H        0.843     0.290     0.747     1.355
    17   1 H        0.805     0.301     0.719     1.332

Wiberg/Mayer (AO) data.
largest (>0.10) Wiberg bond orders for each atom

     #   Z sym  total        # sym  WBO       # sym  WBO       # sym  WBO
 ---------------------------------------------------------------------------
     1   6 C    3.997 --     4 H    0.989     3 H    0.989     5 H    0.989
                             2 C    0.971
     2   6 C    3.977 --    11 O    1.068     1 C    0.971     6 C    0.968
                             8 C    0.968
     3   1 H    1.000 --     1 C    0.989
     4   1 H    1.000 --     1 C    0.989
     5   1 H    0.999 --     1 C    0.989
     6   6 C    3.996 --     9 H    0.989     7 H    0.988    10 H    0.987
                             2 C    0.968
     7   1 H    1.000 --     6 C    0.988
     8   6 C    3.996 --    14 H    0.989    12 H    0.988    13 H    0.987
                             2 C    0.968
     9   1 H    1.000 --     6 C    0.989
    10   1 H    1.000 --     6 C    0.987
    11   8 O    1.519 --     2 C    1.068    16 H    0.234
    12   1 H    1.000 --     8 C    0.988
    13   1 H    1.000 --     8 C    0.987
    14   1 H    1.000 --     8 C    0.989
    15   8 O    1.684 --    17 H    0.908    16 H    0.674
    16   1 H    0.916 --    15 O    0.674    11 O    0.234
    17   1 H    0.910 --    15 O    0.908
 ---------------------------------------------------------------------------

molecular dipole:
                 x           y           z       tot (Debye)
 q only:        2.657       5.533      -5.279
   full:        2.547       5.502      -5.360      20.569

 projected vibrational frequencies (cm⁻¹)
eigval :       -0.00    -0.00    -0.00     0.00     0.00     0.00
eigval :      -94.77    62.10   101.93   170.23   230.33   242.24
eigval :      269.70   332.51   370.43   432.49   465.90   527.74
eigval :      691.23   773.56   900.36   907.52   934.67   951.96
eigval :     1014.23  1015.30  1094.46  1148.64  1185.54  1197.30
eigval :     1364.38  1366.68  1389.98  1448.94  1473.09  1485.74
eigval :     1489.56  1504.42  1506.08  1521.52  1607.55  2995.42
eigval :     2997.93  3005.09  3005.38  3011.38  3012.04  3021.37
eigval :     3024.14  3027.32  3641.27

   temp. (K)  partition function   enthalpy   heat capacity  entropy
                                   cal/mol     cal/K/mol   cal/K/mol   J/K/mol
 298.15  VIB   127.                 3571.034     23.836     21.261
         ROT  0.207E+06              888.752      2.981     27.302
         INT  0.263E+08             4459.786     26.817     48.563
         TR   0.842E+27             1481.254      4.968     39.423
         TOT                        5941.0401    31.7849    87.9862   368.1342

       T/K    H(0)-H(T)+PV         H(T)/Eh          T*S/Eh         G(T)/Eh
   ------------------------------------------------------------------------
    298.15    0.946765E-02    0.150531E+00    0.418051E-01    0.108726E+00
   ------------------------------------------------------------------------

         :::::::::::::::::::::::::::::::::::::::::::::::::::::
         ::                  THERMODYNAMIC                  ::
         :::::::::::::::::::::::::::::::::::::::::::::::::::::
         :: total free energy         -22.478911850141 Eh   ::
         ::.................................................::
         :: total energy              -22.587637753956 Eh   ::
         :: zero point energy           0.141063333669 Eh   ::
         :: G(RRHO) w/o ZPVE           -0.032337429854 Eh   ::
         :: G(RRHO) contrib.            0.108725903815 Eh   ::
         :::::::::::::::::::::::::::::::::::::::::::::::::::::

           -------------------------------------------------
          | TOTAL ENERGY              -22.587637753956 Eh   |
          | TOTAL ENTHALPY            -22.437106770291 Eh   |
          | TOTAL FREE ENERGY         -22.478911850141 Eh   |
          | GRADIENT NORM               0.000478689368 Eh/α |
          | HOMO-LUMO GAP              11.274262025060 eV   |
           -------------------------------------------------

 * finished run on 2025/10/18 at 02:28:00.826
normal termination of xtb
