   * xtb version 6.7.1 (edcfbbe) compiled by 'albert@albert-system' on 2024-07-22

   ID    Z sym.   atoms
    1    6 C      1, 2, 6, 8
    2    1 H      3-5, 7, 9, 10, 12-14, 16, 17
    3    8 O      11, 15

          program call               : xtb tb_lite_results_shiftn0p25_gp660_b0_rot180_complex.xyz --ohess --chrg -1 --alpb water
      * Solvation model:               ALPB
        Solvent                        water
        Solvent mass                       1.8000E+01 g/mol
          :  Hamiltonian                  GFN2-xTB          :
 * total energy  :   -22.5821234 Eh     change       -0.1283524E-09 Eh
 * total energy  :   -22.5858928 Eh     change       -0.3769404E-02 Eh
 * total energy  :   -22.5867745 Eh     change       -0.8817350E-03 Eh
 * total energy  :   -22.5872143 Eh     change       -0.4397708E-03 Eh
 * total energy  :   -22.5874916 Eh     change       -0.2772455E-03 Eh
 * total energy  :   -22.5875975 Eh     change       -0.1059660E-03 Eh
 * total energy  :   -22.5876493 Eh     change       -0.5181223E-04 Eh
 * total energy  :   -22.5876586 Eh     change       -0.9279093E-05 Eh
 * total energy  :   -22.5876613 Eh     change       -0.2689484E-05 Eh
   *** GEOMETRY OPTIMIZATION CONVERGED AFTER 9 ITERATIONS ***

 final structure:
================
17
 xtb: 6.7.1 (edcfbbe)
C           -3.87534068033545       -4.07232886156000        1.88282554441054
C           -2.89821297605767       -3.10902997167526        2.60536561511293
H           -3.54559420611321       -4.21805968368213        0.85610336930067
H           -3.85520048320517       -5.03556126642291        2.38827370304868
H           -4.88804241214729       -3.67583426364327        1.88914123944061
C           -3.42393336509918       -2.90060044048306        4.04908516030882
H           -4.44253002607882       -2.51947216924687        4.04083945781655
C           -2.94519491398788       -1.74263853471911        1.87597755775966
H           -3.39214638660779       -3.85294005361460        4.57425035880472
H           -2.77522476151076       -2.20100634890139        4.57233608978238
O           -1.61038735018463       -3.60176357477602        2.60315827168126
H           -3.95593271665643       -1.34226312990056        1.87292183195234
H           -2.27661339148031       -1.04648983923872        2.37774783430108
H           -2.59852984981069       -1.87097880355951        0.85286521673970
O           -1.54942710121351       -5.81718345115332        3.76064641339774
H           -1.59076685492572       -4.85291356284282        3.27312296259747
H           -0.68991012034338       -6.15567413008764        3.49537111622351

          :  Hamiltonian                  GFN2-xTB          :
         :: gradient norm              0.000266766952 Eh/a0 ::
         :: HOMO-LUMO gap             11.272407088344 eV    ::
         :: SCC energy               -22.809436930346 Eh    ::
         :: -> dispersion             -0.010277376616 Eh    ::
         :: -> Gsolv                  -0.111782370096 Eh    ::
         :: repulsion energy           0.221775623534 Eh    ::

    * Orbital Energies and Occupations

         #    Occupation            Energy/Eh            Energy/eV
      -------------------------------------------------------------
         1        2.0000           -0.6251010             -17.0099
       ...           ...                  ...                  ...
         8        2.0000           -0.4838984             -13.1675
         9        2.0000           -0.4810086             -13.0889
        10        2.0000           -0.4773139             -12.9884
        11        2.0000           -0.4619600             -12.5706
        12        2.0000           -0.4514570             -12.2848
        13        2.0000           -0.4513717             -12.2824
        14        2.0000           -0.4375909             -11.9075
        15        2.0000           -0.4209279             -11.4540
        16        2.0000           -0.4186552             -11.3922
        17        2.0000           -0.4096294             -11.1466
        18        2.0000           -0.3876885             -10.5495
        19        2.0000           -0.3172857              -8.6338
        20        2.0000           -0.3167252              -8.6185 (HOMO)
        21                          0.0975282               2.6539 (LUMO)
        22                          0.1182345               3.2173
        23                          0.1225583               3.3350
        24                          0.1250128               3.4018
        25                          0.1644558               4.4751
        26                          0.1704379               4.6379
        27                          0.2070903               5.6352
        28                          0.2073962               5.6435
        29                          0.2388628               6.4998
        30                          0.2397892               6.5250
        31                          0.2613895               7.1128
       ...                                ...                  ...
        35                          0.3453337               9.3970
      -------------------------------------------------------------
                  HL-Gap            0.4142533 Eh           11.2724 eV

     #   Z          covCN         q      C6AA      α(0)
     1   6 C        3.754    -0.107    22.604     6.779
     2   6 C        3.770     0.157    18.096     6.062
     3   1 H        0.925     0.015     2.815     2.624
     4   1 H        0.925     0.020     2.739     2.588
     5   1 H        0.925     0.015     2.813     2.623
     6   6 C        3.754    -0.107    22.603     6.779
     7   1 H        0.925     0.015     2.807     2.620
     8   6 C        3.754    -0.105    22.560     6.773
     9   1 H        0.925     0.019     2.746     2.591
    10   1 H        0.925     0.014     2.820     2.626
    11   8 O        0.935    -0.803    31.621     7.542
    12   1 H        0.925     0.018     2.763     2.600
    13   1 H        0.925     0.017     2.784     2.609
    14   1 H        0.925     0.017     2.780     2.607
    15   8 O        1.566    -0.775    29.832     7.370
    16   1 H        0.842     0.289     0.748     1.356
    17   1 H        0.805     0.301     0.717     1.330

Wiberg/Mayer (AO) data.
largest (>0.10) Wiberg bond orders for each atom

     #   Z sym  total        # sym  WBO       # sym  WBO       # sym  WBO
 ---------------------------------------------------------------------------
     1   6 C    3.996 --     3 H    0.989     5 H    0.988     4 H    0.987
                             2 C    0.968
     2   6 C    3.977 --    11 O    1.069     8 C    0.971     6 C    0.968
                             1 C    0.968
     3   1 H    1.000 --     1 C    0.989
     4   1 H    1.000 --     1 C    0.987
     5   1 H    1.000 --     1 C    0.988
     6   6 C    3.996 --    10 H    0.989     7 H    0.988     9 H    0.987
                             2 C    0.968
     7   1 H    1.000 --     6 C    0.988
     8   6 C    3.997 --    13 H    0.989    14 H    0.989    12 H    0.989
                             2 C    0.971
     9   1 H    1.000 --     6 C    0.987
    10   1 H    1.000 --     6 C    0.989
    11   8 O    1.518 --     2 C    1.069    16 H    0.232
    12   1 H    0.999 --     8 C    0.989
    13   1 H    1.000 --     8 C    0.989
    14   1 H    1.000 --     8 C    0.989
    15   8 O    1.685 --    17 H    0.908    16 H    0.676
    16   1 H    0.916 --    15 O    0.676    11 O    0.232
    17   1 H    0.909 --    15 O    0.908
 ---------------------------------------------------------------------------

molecular dipole:
                 x           y           z       tot (Debye)
 q only:        3.657       7.846      -5.741
   full:        3.607       7.943      -5.825      26.662

 projected vibrational frequencies (cm⁻¹)
eigval :       -0.00    -0.00    -0.00     0.00     0.00     0.00
eigval :       55.87    73.09   103.57   166.26   226.99   240.57
eigval :      269.49   331.87   369.67   432.36   465.57   528.51
eigval :      694.18   773.88   900.06   907.21   934.14   952.97
eigval :     1013.89  1014.58  1095.43  1149.20  1185.45  1196.48
eigval :     1363.89  1366.16  1389.47  1454.67  1472.84  1485.59
eigval :     1489.49  1504.27  1505.82  1521.36  1615.65  2995.91
eigval :     2999.17  3006.67  3006.98  3012.91  3013.17  3022.93
eigval :     3024.57  3027.80  3638.95

   temp. (K)  partition function   enthalpy   heat capacity  entropy
                                   cal/mol     cal/K/mol   cal/K/mol   J/K/mol
 298.15  VIB   476.                 4080.202     25.545     25.292
         ROT  0.207E+06              888.752      2.981     27.311
         INT  0.988E+08             4968.954     28.526     52.602
         TR   0.842E+27             1481.254      4.968     39.423
         TOT                        6450.2080    33.4942    92.0256   385.0349

       T/K    H(0)-H(T)+PV         H(T)/Eh          T*S/Eh         G(T)/Eh
   ------------------------------------------------------------------------
    298.15    0.102791E-01    0.151525E+00    0.437243E-01    0.107800E+00
   ------------------------------------------------------------------------

         :::::::::::::::::::::::::::::::::::::::::::::::::::::
         ::                  THERMODYNAMIC                  ::
         :::::::::::::::::::::::::::::::::::::::::::::::::::::
         :: total free energy         -22.479861100218 Eh   ::
         ::.................................................::
         :: total energy              -22.587661306676 Eh   ::
         :: zero point energy           0.141245457327 Eh   ::
         :: G(RRHO) w/o ZPVE           -0.033445250869 Eh   ::
         :: G(RRHO) contrib.            0.107800206458 Eh   ::
         :::::::::::::::::::::::::::::::::::::::::::::::::::::

           -------------------------------------------------
          | TOTAL ENERGY              -22.587661306676 Eh   |
          | TOTAL ENTHALPY            -22.436136788656 Eh   |
          | TOTAL FREE ENERGY         -22.479861100218 Eh   |
          | GRADIENT NORM               0.000266816713 Eh/α |
          | HOMO-LUMO GAP              11.272406840475 eV   |
           -------------------------------------------------

 * finished run on 2025/10/18 at 02:27:54.544
normal termination of xtb
