   * xtb version 6.7.1 (edcfbbe) compiled by 'albert@albert-system' on 2024-07-22

   ID    Z sym.   atoms
    1    6 C      1, 2, 6, 8
    2    1 H      3-5, 7, 9, 10, 12-14, 16, 17
    3    8 O      11, 15

          program call               : xtb tb_lite_results_shiftn0p2_gp660_b0_rot180_complex.xyz --ohess --chrg -1 --alpb water
      * Solvation model:               ALPB
        Solvent                        water
        Solvent mass                       1.8000E+01 g/mol
          :  Hamiltonian                  GFN2-xTB          :
 * total energy  :   -22.5822078 Eh     change       -0.1532321E-09 Eh
 * total energy  :   -22.5855316 Eh     change       -0.3323795E-02 Eh
 * total energy  :   -22.5866269 Eh     change       -0.1095364E-02 Eh
 * total energy  :   -22.5872041 Eh     change       -0.5771173E-03 Eh
 * total energy  :   -22.5874739 Eh     change       -0.2698858E-03 Eh
 * total energy  :   -22.5876011 Eh     change       -0.1271315E-03 Eh
 * total energy  :   -22.5876478 Eh     change       -0.4670603E-04 Eh
 * total energy  :   -22.5876581 Eh     change       -0.1034449E-04 Eh
 * total energy  :   -22.5876611 Eh     change       -0.3018876E-05 Eh
   *** GEOMETRY OPTIMIZATION CONVERGED AFTER 9 ITERATIONS ***

 final structure:
================
17
 xtb: 6.7.1 (edcfbbe)
C           -3.87663227098893       -4.07745293821009        1.88541294603934
C           -2.89702324415321       -3.11749067784629        2.60888913750155
H           -3.54500730418644       -4.22605067238152        0.85974179149519
H           -3.86174753731466       -5.04002619373683        2.39223858957564
H           -4.88767079412628       -3.67670064966262        1.88869063302947
C           -3.42467882061223       -2.90540810220697        4.05128031423356
H           -4.44156209935213       -2.51976859532967        4.04070770469778
C           -2.93675530366528       -1.75179108357012        1.87798661761790
H           -3.39815264712650       -3.85740428514357        4.57732333279009
H           -2.77390748644368       -2.20824727149634        4.57516409520467
O           -1.61110737300297       -3.61561514116993        2.60984161248202
H           -3.94576982060845       -1.34714407026706        1.87251303767766
H           -2.26621890261459       -1.05798981842533        2.38035564417512
H           -2.58861079615351       -1.88271744136657        0.85572402018176
O           -1.56000303461681       -5.82829203053786        3.77267238022977
H           -1.59783840249035       -4.86537965204172        3.28151512533526
H           -0.70030175830196       -6.16898329870089        3.51173011474189

          :  Hamiltonian                  GFN2-xTB          :
         :: gradient norm              0.000323560648 Eh/a0 ::
         :: HOMO-LUMO gap             11.273924395752 eV    ::
         :: SCC energy               -22.809486917783 Eh    ::
         :: -> dispersion             -0.010276693125 Eh    ::
         :: -> Gsolv                  -0.111781837370 Eh    ::
         :: repulsion energy           0.221825779643 Eh    ::

    * Orbital Energies and Occupations

         #    Occupation            Energy/Eh            Energy/eV
      -------------------------------------------------------------
         1        2.0000           -0.6250670             -17.0089
       ...           ...                  ...                  ...
         8        2.0000           -0.4839124             -13.1679
         9        2.0000           -0.4810258             -13.0894
        10        2.0000           -0.4773211             -12.9886
        11        2.0000           -0.4619450             -12.5702
        12        2.0000           -0.4514656             -12.2850
        13        2.0000           -0.4513755             -12.2826
        14        2.0000           -0.4375945             -11.9076
        15        2.0000           -0.4209308             -11.4541
        16        2.0000           -0.4186638             -11.3924
        17        2.0000           -0.4096392             -11.1469
        18        2.0000           -0.3876369             -10.5481
        19        2.0000           -0.3173268              -8.6349
        20        2.0000           -0.3167763              -8.6199 (HOMO)
        21                          0.0975329               2.6540 (LUMO)
        22                          0.1183223               3.2197
        23                          0.1225851               3.3357
        24                          0.1249939               3.4013
        25                          0.1644991               4.4762
        26                          0.1705036               4.6396
        27                          0.2071021               5.6355
        28                          0.2074222               5.6442
        29                          0.2388769               6.5002
        30                          0.2398129               6.5256
        31                          0.2614295               7.1139
       ...                                ...                  ...
        35                          0.3451928               9.3932
      -------------------------------------------------------------
                  HL-Gap            0.4143092 Eh           11.2739 eV

     #   Z          covCN         q      C6AA      α(0)
     1   6 C        3.754    -0.107    22.604     6.779
     2   6 C        3.770     0.157    18.097     6.062
     3   1 H        0.925     0.015     2.814     2.624
     4   1 H        0.925     0.020     2.739     2.588
     5   1 H        0.925     0.015     2.812     2.622
     6   6 C        3.754    -0.107    22.603     6.779
     7   1 H        0.925     0.015     2.807     2.620
     8   6 C        3.754    -0.105    22.560     6.773
     9   1 H        0.925     0.019     2.745     2.591
    10   1 H        0.925     0.014     2.820     2.626
    11   8 O        0.935    -0.803    31.617     7.541
    12   1 H        0.925     0.018     2.763     2.599
    13   1 H        0.925     0.017     2.784     2.609
    14   1 H        0.925     0.017     2.779     2.607
    15   8 O        1.566    -0.775    29.839     7.371
    16   1 H        0.842     0.289     0.748     1.356
    17   1 H        0.805     0.301     0.717     1.330

Wiberg/Mayer (AO) data.
largest (>0.10) Wiberg bond orders for each atom

     #   Z sym  total        # sym  WBO       # sym  WBO       # sym  WBO
 ---------------------------------------------------------------------------
     1   6 C    3.996 --     3 H    0.989     5 H    0.988     4 H    0.987
                             2 C    0.968
     2   6 C    3.977 --    11 O    1.068     8 C    0.971     6 C    0.968
                             1 C    0.968
     3   1 H    1.000 --     1 C    0.989
     4   1 H    1.000 --     1 C    0.987
     5   1 H    1.000 --     1 C    0.988
     6   6 C    3.996 --    10 H    0.989     7 H    0.988     9 H    0.987
                             2 C    0.968
     7   1 H    1.000 --     6 C    0.988
     8   6 C    3.997 --    13 H    0.989    14 H    0.989    12 H    0.989
                             2 C    0.971
     9   1 H    1.000 --     6 C    0.987
    10   1 H    1.000 --     6 C    0.989
    11   8 O    1.518 --     2 C    1.068    16 H    0.233
    12   1 H    0.999 --     8 C    0.989
    13   1 H    1.000 --     8 C    0.989
    14   1 H    1.000 --     8 C    0.989
    15   8 O    1.685 --    17 H    0.908    16 H    0.675
    16   1 H    0.916 --    15 O    0.675    11 O    0.233
    17   1 H    0.909 --    15 O    0.908
 ---------------------------------------------------------------------------

molecular dipole:
                 x           y           z       tot (Debye)
 q only:        3.662       7.870      -5.755
   full:        3.614       7.967      -5.839      26.735

 projected vibrational frequencies (cm⁻¹)
eigval :       -0.00    -0.00    -0.00     0.00     0.00     0.00
eigval :      -45.20    60.50   102.11   165.93   226.72   240.36
eigval :      269.48   331.85   369.55   432.26   465.55   528.32
eigval :      687.35   774.01   900.14   907.32   934.19   952.49
eigval :     1013.89  1014.58  1093.65  1148.01  1185.61  1196.62
eigval :     1363.90  1366.19  1389.49  1450.68  1472.82  1485.57
eigval :     1489.31  1504.23  1505.80  1521.27  1615.61  2995.90
eigval :     2999.20  3006.94  3007.06  3013.16  3013.44  3023.12
eigval :     3024.81  3028.02  3642.08

   temp. (K)  partition function   enthalpy   heat capacity  entropy
                                   cal/mol     cal/K/mol   cal/K/mol   J/K/mol
 298.15  VIB   134.                 3584.865     23.840     21.382
         ROT  0.208E+06              888.752      2.981     27.311
         INT  0.278E+08             4473.617     26.821     48.692
         TR   0.842E+27             1481.254      4.968     39.423
         TOT                        5954.8713    31.7894    88.1156   368.6756

       T/K    H(0)-H(T)+PV         H(T)/Eh          T*S/Eh         G(T)/Eh
   ------------------------------------------------------------------------
    298.15    0.948969E-02    0.150552E+00    0.418666E-01    0.108685E+00
   ------------------------------------------------------------------------

         :::::::::::::::::::::::::::::::::::::::::::::::::::::
         ::                  THERMODYNAMIC                  ::
         :::::::::::::::::::::::::::::::::::::::::::::::::::::
         :: total free energy         -22.478975920114 Eh   ::
         ::.................................................::
         :: total energy              -22.587661138036 Eh   ::
         :: zero point energy           0.141062081449 Eh   ::
         :: G(RRHO) w/o ZPVE           -0.032376863526 Eh   ::
         :: G(RRHO) contrib.            0.108685217923 Eh   ::
         :::::::::::::::::::::::::::::::::::::::::::::::::::::

           -------------------------------------------------
          | TOTAL ENERGY              -22.587661138036 Eh   |
          | TOTAL ENTHALPY            -22.437109365091 Eh   |
          | TOTAL FREE ENERGY         -22.478975920114 Eh   |
          | GRADIENT NORM               0.000323468609 Eh/α |
          | HOMO-LUMO GAP              11.273926169768 eV   |
           -------------------------------------------------

 * finished run on 2025/10/18 at 02:27:58.800
normal termination of xtb
