   * xtb version 6.7.1 (edcfbbe) compiled by 'albert@albert-system' on 2024-07-22

   ID    Z sym.   atoms
    1    6 C      1, 2, 6, 8
    2    1 H      3-5, 7, 9, 10, 12-14
    3    8 O      11

          program call               : xtb tb_lite_results_shiftn0p25_gp660_b0_rot180_solute.xyz --ohess --chrg -1
          :  Hamiltonian                  GFN2-xTB          :
 * total energy  :   -17.3730403 Eh     change       -0.6862528E-09 Eh
 * total energy  :   -17.3755838 Eh     change       -0.2543570E-02 Eh
 * total energy  :   -17.3766980 Eh     change       -0.1114194E-02 Eh
 * total energy  :   -17.3768048 Eh     change       -0.1067262E-03 Eh
 * total energy  :   -17.3768218 Eh     change       -0.1700706E-04 Eh
 * total energy  :   -17.3768219 Eh     change       -0.1666067E-06 Eh
   *** GEOMETRY OPTIMIZATION CONVERGED AFTER 6 ITERATIONS ***

 final structure:
================
14
 xtb: 6.7.1 (edcfbbe)
C           -3.84421567317699       -4.07809841018521        1.87054872687710
C           -2.80787672287680       -3.11832057148694        2.59009137336931
H           -3.54014075980006       -4.21918197318376        0.83426802070294
H           -3.83257350184760       -5.04953802030629        2.36287810457059
H           -4.86097329283862       -3.67885075576133        1.89293869094837
C           -3.38854889586793       -2.90486829017163        4.04960104904777
H           -4.41465016595450       -2.52991187597219        4.03495338456197
C           -2.97714214362987       -1.71607021319927        1.87040975715132
H           -3.36373073206848       -3.85259073549692        4.58570908949340
H           -2.75828288209418       -2.19578540900485        4.58456696406523
O           -1.58267951243321       -3.56807178490416        2.57586537059405
H           -4.00999386607581       -1.36076780078498        1.89619776644989
H           -2.33670611690660       -0.98386469773138        2.36023739895935
H           -2.65774096469210       -1.80625066498452        0.83306848400500

          :  Hamiltonian                  GFN2-xTB          :
         :: gradient norm              0.000127358002 Eh/a0 ::
         :: HOMO-LUMO gap             10.033434009614 eV    ::
         :: SCC energy               -17.573617721058 Eh    ::
         :: -> dispersion             -0.008600153820 Eh    ::
         :: repulsion energy           0.196795792697 Eh    ::

    * Orbital Energies and Occupations

         #    Occupation            Energy/Eh            Energy/eV
      -------------------------------------------------------------
         1        2.0000           -0.4182343             -11.3807
       ...           ...                  ...                  ...
         4        2.0000           -0.3877588             -10.5515
         5        2.0000           -0.3327680              -9.0551
         6        2.0000           -0.3065231              -8.3409
         7        2.0000           -0.3065124              -8.3406
         8        2.0000           -0.3048886              -8.2964
         9        2.0000           -0.2855226              -7.7695
        10        2.0000           -0.2854905              -7.7686
        11        2.0000           -0.2706938              -7.3660
        12        2.0000           -0.2424083              -6.5963
        13        2.0000           -0.2423933              -6.5959
        14        2.0000           -0.2127882              -5.7903
        15        2.0000           -0.0951807              -2.5900
        16        2.0000           -0.0951728              -2.5898 (HOMO)
        17                          0.2735491               7.4437 (LUMO)
        18                          0.2784906               7.5781
        19                          0.2785489               7.5797
        20                          0.3092984               8.4164
        21                          0.3535603               9.6209
        22                          0.3699090              10.0657
        23                          0.3699527              10.0669
        24                          0.3950314              10.7494
        25                          0.3950815              10.7507
        26                          0.4234830              11.5236
        27                          0.4321327              11.7589
       ...                                ...                  ...
        29                          0.6319129              17.1952
      -------------------------------------------------------------
                  HL-Gap            0.3687219 Eh           10.0334 eV

     #   Z          covCN         q      C6AA      α(0)
     1   6 C        3.747    -0.101    22.503     6.766
     2   6 C        3.756     0.196    17.544     5.972
     3   1 H        0.925    -0.006     3.169     2.784
     4   1 H        0.925    -0.006     3.171     2.785
     5   1 H        0.924    -0.032     3.687     3.003
     6   6 C        3.747    -0.101    22.503     6.766
     7   1 H        0.924    -0.032     3.687     3.003
     8   6 C        3.747    -0.101    22.503     6.766
     9   1 H        0.925    -0.006     3.170     2.784
    10   1 H        0.925    -0.006     3.171     2.785
    11   8 O        0.856    -0.757    30.321     7.383
    12   1 H        0.924    -0.032     3.687     3.003
    13   1 H        0.925    -0.006     3.170     2.784
    14   1 H        0.925    -0.006     3.170     2.784

Wiberg/Mayer (AO) data.
largest (>0.10) Wiberg bond orders for each atom

     #   Z sym  total        # sym  WBO       # sym  WBO       # sym  WBO
 ---------------------------------------------------------------------------
     1   6 C    3.977 --     3 H    0.991     4 H    0.991     5 H    0.988
                             2 C    0.914
     2   6 C    3.973 --    11 O    1.231     6 C    0.914     1 C    0.914
                             8 C    0.914
     3   1 H    1.000 --     1 C    0.991
     4   1 H    1.000 --     1 C    0.991
     5   1 H    0.999 --     1 C    0.988
     6   6 C    3.977 --     9 H    0.991    10 H    0.991     7 H    0.988
                             2 C    0.914
     7   1 H    0.999 --     6 C    0.988
     8   6 C    3.977 --    14 H    0.991    13 H    0.991    12 H    0.988
                             2 C    0.914
     9   1 H    1.000 --     6 C    0.991
    10   1 H    1.000 --     6 C    0.991
    11   8 O    1.460 --     2 C    1.231
    12   1 H    0.999 --     8 C    0.988
    13   1 H    1.000 --     8 C    0.991
    14   1 H    1.000 --     8 C    0.991
 ---------------------------------------------------------------------------

molecular dipole:
                 x           y           z       tot (Debye)
 q only:        4.212       6.294      -4.882
   full:        3.750       6.464      -4.876      22.680

 projected vibrational frequencies (cm⁻¹)
eigval :       -0.00    -0.00    -0.00    -0.00     0.00     0.00
eigval :      147.72   222.89   223.00   324.04   324.11   415.22
eigval :      469.69   469.72   701.11   788.25   788.35   878.45
eigval :      972.41   972.45  1017.89  1105.96  1106.03  1270.75
eigval :     1336.22  1336.25  1362.69  1493.08  1505.33  1505.39
eigval :     1515.23  1515.29  1530.06  2926.58  2926.60  2946.19
eigval :     2986.47  2997.51  2997.56  3003.46  3003.50  3008.49

   temp. (K)  partition function   enthalpy   heat capacity  entropy
                                   cal/mol     cal/K/mol   cal/K/mol   J/K/mol
 298.15  VIB   12.0                 2408.829     18.231     13.009
         ROT  0.283E+05              888.752      2.981     23.353
         INT  0.339E+06             3297.581     21.211     36.363
         TR   0.605E+27             1481.254      4.968     38.767
         TOT                        4778.8350    26.1796    75.1298   314.3431

       T/K    H(0)-H(T)+PV         H(T)/Eh          T*S/Eh         G(T)/Eh
   ------------------------------------------------------------------------
    298.15    0.761556E-02    0.126294E+00    0.356966E-01    0.905977E-01
   ------------------------------------------------------------------------

         :::::::::::::::::::::::::::::::::::::::::::::::::::::
         ::                  THERMODYNAMIC                  ::
         :::::::::::::::::::::::::::::::::::::::::::::::::::::
         :: total free energy         -17.286224261856 Eh   ::
         ::.................................................::
         :: total energy              -17.376821928361 Eh   ::
         :: zero point energy           0.118678698360 Eh   ::
         :: G(RRHO) w/o ZPVE           -0.028081031854 Eh   ::
         :: G(RRHO) contrib.            0.090597666506 Eh   ::
         :::::::::::::::::::::::::::::::::::::::::::::::::::::

           -------------------------------------------------
          | TOTAL ENERGY              -17.376821928361 Eh   |
          | TOTAL ENTHALPY            -17.250527671697 Eh   |
          | TOTAL FREE ENERGY         -17.286224261856 Eh   |
          | GRADIENT NORM               0.000127395710 Eh/α |
          | HOMO-LUMO GAP              10.033432822746 eV   |
           -------------------------------------------------

 * finished run on 2025/10/18 at 02:27:54.991
normal termination of xtb
