   * xtb version 6.7.1 (edcfbbe) compiled by 'albert@albert-system' on 2024-07-22

   ID    Z sym.   atoms
    1    6 C      1, 2, 6, 8
    2    1 H      3-5, 7, 9, 10, 12-14, 16, 17
    3    8 O      11, 15

          program call               : xtb tb_lite_results_shiftn0p25_gp594_b0_rot90_complex.xyz --ohess --chrg -1 --alpb water
      * Solvation model:               ALPB
        Solvent                        water
        Solvent mass                       1.8000E+01 g/mol
          :  Hamiltonian                  GFN2-xTB          :
 * total energy  :   -22.5820682 Eh     change       -0.1481091E-09 Eh
 * total energy  :   -22.5858976 Eh     change       -0.3829430E-02 Eh
 * total energy  :   -22.5867261 Eh     change       -0.8284136E-03 Eh
 * total energy  :   -22.5871125 Eh     change       -0.3864187E-03 Eh
 * total energy  :   -22.5874297 Eh     change       -0.3172424E-03 Eh
 * total energy  :   -22.5875261 Eh     change       -0.9641018E-04 Eh
 * total energy  :   -22.5875800 Eh     change       -0.5385636E-04 Eh
 * total energy  :   -22.5875949 Eh     change       -0.1494076E-04 Eh
 * total energy  :   -22.5876057 Eh     change       -0.1072801E-04 Eh
 * total energy  :   -22.5876170 Eh     change       -0.1135704E-04 Eh
 * total energy  :   -22.5876261 Eh     change       -0.9121184E-05 Eh
 * total energy  :   -22.5876342 Eh     change       -0.8042640E-05 Eh
 * total energy  :   -22.5876416 Eh     change       -0.7446001E-05 Eh
 * total energy  :   -22.5876449 Eh     change       -0.3298333E-05 Eh
   *** GEOMETRY OPTIMIZATION CONVERGED AFTER 14 ITERATIONS ***

 final structure:
================
17
 xtb: 6.7.1 (edcfbbe)
C           -3.82306542487259       -4.07378445282608        1.87458187776604
C           -2.88468394270992       -3.10579567728821        2.63896395431858
H           -3.44360355190855       -4.21878526754219        0.86526097294284
H           -3.83068303397346       -5.03820487973754        2.37802649764829
H           -4.83362420541483       -3.67494326094367        1.83203589792199
C           -3.46586064734641       -2.89949507882028        4.06199814763700
H           -4.47098769806151       -2.48678861330184        4.01544629337946
C           -2.91582468564109       -1.73575594584753        1.91329597067449
H           -3.48541408353516       -3.85303865483766        4.58624704998175
H           -2.81574390634460       -2.22089457059170        4.61029323907853
O           -1.60671495697351       -3.62162318001307        2.68699773766436
H           -3.92474101142706       -1.33026935157894        1.89067970261543
H           -2.25483986248571       -1.04778480416258        2.43641368567449
H           -2.54651130746785       -1.85661291528243        0.89674880157030
O           -0.14052547355241       -2.04317104752493        3.95523571471486
H           -0.78001207218358       -2.71303201138395        3.39507915217432
H            0.60189512659304       -2.60303545185218        4.19881571658377

          :  Hamiltonian                  GFN2-xTB          :
         :: gradient norm              0.000519119969 Eh/a0 ::
         :: HOMO-LUMO gap             11.267910242654 eV    ::
         :: SCC energy               -22.809202532623 Eh    ::
         :: -> dispersion             -0.010292841327 Eh    ::
         :: -> Gsolv                  -0.111796510499 Eh    ::
         :: repulsion energy           0.221557607684 Eh    ::

    * Orbital Energies and Occupations

         #    Occupation            Energy/Eh            Energy/eV
      -------------------------------------------------------------
         1        2.0000           -0.6249652             -17.0062
       ...           ...                  ...                  ...
         8        2.0000           -0.4838774             -13.1670
         9        2.0000           -0.4809623             -13.0877
        10        2.0000           -0.4770522             -12.9813
        11        2.0000           -0.4617646             -12.5653
        12        2.0000           -0.4513910             -12.2830
        13        2.0000           -0.4512303             -12.2786
        14        2.0000           -0.4375063             -11.9052
        15        2.0000           -0.4209699             -11.4552
        16        2.0000           -0.4185166             -11.3884
        17        2.0000           -0.4097704             -11.1504
        18        2.0000           -0.3874624             -10.5434
        19        2.0000           -0.3174955              -8.6395
        20        2.0000           -0.3169089              -8.6235 (HOMO)
        21                          0.0971789               2.6444 (LUMO)
        22                          0.1179669               3.2100
        23                          0.1225264               3.3341
        24                          0.1251631               3.4059
        25                          0.1635413               4.4502
        26                          0.1707120               4.6453
        27                          0.2071309               5.6363
        28                          0.2075567               5.6479
        29                          0.2389321               6.5017
        30                          0.2396489               6.5212
        31                          0.2613495               7.1117
       ...                                ...                  ...
        35                          0.3447328               9.3807
      -------------------------------------------------------------
                  HL-Gap            0.4140878 Eh           11.2679 eV

     #   Z          covCN         q      C6AA      α(0)
     1   6 C        3.754    -0.105    22.561     6.773
     2   6 C        3.770     0.157    18.096     6.062
     3   1 H        0.925     0.017     2.785     2.610
     4   1 H        0.925     0.017     2.780     2.607
     5   1 H        0.925     0.018     2.761     2.598
     6   6 C        3.754    -0.107    22.606     6.780
     7   1 H        0.925     0.015     2.815     2.624
     8   6 C        3.754    -0.107    22.604     6.779
     9   1 H        0.925     0.015     2.815     2.624
    10   1 H        0.925     0.020     2.731     2.584
    11   8 O        0.937    -0.803    31.599     7.539
    12   1 H        0.925     0.015     2.808     2.621
    13   1 H        0.925     0.020     2.740     2.589
    14   1 H        0.925     0.014     2.822     2.627
    15   8 O        1.565    -0.776    29.855     7.372
    16   1 H        0.843     0.290     0.747     1.355
    17   1 H        0.805     0.301     0.719     1.332

Wiberg/Mayer (AO) data.
largest (>0.10) Wiberg bond orders for each atom

     #   Z sym  total        # sym  WBO       # sym  WBO       # sym  WBO
 ---------------------------------------------------------------------------
     1   6 C    3.997 --     3 H    0.989     4 H    0.989     5 H    0.989
                             2 C    0.971
     2   6 C    3.977 --    11 O    1.068     1 C    0.971     8 C    0.968
                             6 C    0.968
     3   1 H    1.000 --     1 C    0.989
     4   1 H    1.000 --     1 C    0.989
     5   1 H    0.999 --     1 C    0.989
     6   6 C    3.996 --     9 H    0.989     7 H    0.988    10 H    0.987
                             2 C    0.968
     7   1 H    1.000 --     6 C    0.988
     8   6 C    3.996 --    14 H    0.989    12 H    0.988    13 H    0.987
                             2 C    0.968
     9   1 H    1.000 --     6 C    0.989
    10   1 H    1.000 --     6 C    0.987
    11   8 O    1.520 --     2 C    1.068    16 H    0.234
    12   1 H    1.000 --     8 C    0.988
    13   1 H    1.000 --     8 C    0.987
    14   1 H    1.000 --     8 C    0.989
    15   8 O    1.684 --    17 H    0.908    16 H    0.674
    16   1 H    0.916 --    15 O    0.674    11 O    0.234
    17   1 H    0.910 --    15 O    0.908
 ---------------------------------------------------------------------------

molecular dipole:
                 x           y           z       tot (Debye)
 q only:        2.762       5.541      -5.680
   full:        2.645       5.468      -5.695      21.163

 projected vibrational frequencies (cm⁻¹)
eigval :       -0.00    -0.00    -0.00     0.00     0.00     0.00
eigval :       57.80    90.19   105.09   169.58   229.21   242.83
eigval :      270.37   332.76   370.58   432.67   465.96   529.30
eigval :      697.51   773.53   900.30   907.25   934.46   952.68
eigval :     1013.93  1015.14  1098.16  1149.27  1185.34  1197.02
eigval :     1364.01  1366.56  1389.79  1450.82  1473.03  1485.72
eigval :     1489.63  1504.36  1505.95  1521.28  1609.19  2995.96
eigval :     2999.08  3005.38  3006.44  3011.56  3011.93  3021.68
eigval :     3024.24  3027.41  3635.21

   temp. (K)  partition function   enthalpy   heat capacity  entropy
                                   cal/mol     cal/K/mol   cal/K/mol   J/K/mol
 298.15  VIB   374.                 4043.408     25.632     24.844
         ROT  0.206E+06              888.752      2.981     27.299
         INT  0.773E+08             4932.160     28.613     52.144
         TR   0.842E+27             1481.254      4.968     39.423
         TOT                        6413.4141    33.5809    91.5668   383.1154

       T/K    H(0)-H(T)+PV         H(T)/Eh          T*S/Eh         G(T)/Eh
   ------------------------------------------------------------------------
    298.15    0.102204E-01    0.151513E+00    0.435063E-01    0.108006E+00
   ------------------------------------------------------------------------

         :::::::::::::::::::::::::::::::::::::::::::::::::::::
         ::                  THERMODYNAMIC                  ::
         :::::::::::::::::::::::::::::::::::::::::::::::::::::
         :: total free energy         -22.479638535527 Eh   ::
         ::.................................................::
         :: total energy              -22.587644924722 Eh   ::
         :: zero point energy           0.141292294554 Eh   ::
         :: G(RRHO) w/o ZPVE           -0.033285905359 Eh   ::
         :: G(RRHO) contrib.            0.108006389195 Eh   ::
         :::::::::::::::::::::::::::::::::::::::::::::::::::::

           -------------------------------------------------
          | TOTAL ENERGY              -22.587644924722 Eh   |
          | TOTAL ENTHALPY            -22.436132204284 Eh   |
          | TOTAL FREE ENERGY         -22.479638535527 Eh   |
          | GRADIENT NORM               0.000519428803 Eh/α |
          | HOMO-LUMO GAP              11.267903099872 eV   |
           -------------------------------------------------

 * finished run on 2025/10/18 at 02:27:56.730
normal termination of xtb
