   * xtb version 6.7.1 (edcfbbe) compiled by 'albert@albert-system' on 2024-07-22

   ID    Z sym.   atoms
    1    6 C      1
    2   17 Cl     2-4
    3    8 O      5
    4    1 H      6, 7

          program call               : xtb tb_lite_results_shiftn0p05_gp31_b0_rot270_complex.xyz --ohess --chrg -1 --alpb water
      * Solvation model:               ALPB
        Solvent                        water
        Solvent mass                       1.8000E+01 g/mol
          :  Hamiltonian                  GFN2-xTB          :
 * total energy  :   -21.1000707 Eh     change       -0.1314504E-10 Eh
 * total energy  :   -21.1465702 Eh     change       -0.4649957E-01 Eh
 * total energy  :   -21.1367517 Eh     change        0.9818532E-02 Eh
 * total energy  :   -21.1611734 Eh     change       -0.2442167E-01 Eh
 * total energy  :   -21.1641350 Eh     change       -0.2961611E-02 Eh
 * total energy  :   -21.1659120 Eh     change       -0.1776980E-02 Eh
 * total energy  :   -21.1661778 Eh     change       -0.2658072E-03 Eh
 * total energy  :   -21.1662368 Eh     change       -0.5902411E-04 Eh
 * total energy  :   -21.1662971 Eh     change       -0.6030639E-04 Eh
 * total energy  :   -21.1663292 Eh     change       -0.3214008E-04 Eh
 * total energy  :   -21.1663492 Eh     change       -0.6943962E-05 Eh
 * total energy  :   -21.1663560 Eh     change       -0.6727143E-05 Eh
 * total energy  :   -21.1663648 Eh     change       -0.8848419E-05 Eh
 * total energy  :   -21.1663808 Eh     change       -0.1597194E-04 Eh
 * total energy  :   -21.1663912 Eh     change       -0.1043651E-04 Eh
 * total energy  :   -21.1664082 Eh     change       -0.1695892E-04 Eh
 * total energy  :   -21.1664184 Eh     change       -0.1021416E-04 Eh
 * total energy  :   -21.1664294 Eh     change       -0.1099994E-04 Eh
 * total energy  :   -21.1664337 Eh     change       -0.4319481E-05 Eh
   *** GEOMETRY OPTIMIZATION CONVERGED AFTER 20 ITERATIONS ***

 final structure:
================
7
 xtb: 6.7.1 (edcfbbe)
C           -5.74914558452282       -3.01109424520197        2.63407765744708
Cl          -4.64728837882138       -1.57776093282080        2.40805371975972
Cl          -6.51383582610557       -3.26204176511387        1.00427626274353
Cl          -7.09886158921151       -2.39147355202706        3.68518795724298
O           -4.23431057851759       -5.52821140860316        3.88342201700478
H           -4.58118500980476       -4.67008773977383        3.59971863376839
H           -4.75224160267179       -6.19055415690171        3.41391997788560

          :  Hamiltonian                  GFN2-xTB          :
         :: gradient norm              0.000608086075 Eh/a0 ::
         :: HOMO-LUMO gap              5.002513273305 eV    ::
         :: SCC energy               -21.207222960892 Eh    ::
         :: -> dispersion             -0.005411825314 Eh    ::
         :: -> Gsolv                  -0.089319488130 Eh    ::
         :: repulsion energy           0.040789244185 Eh    ::

    * Orbital Energies and Occupations

         #    Occupation            Energy/Eh            Energy/eV
      -------------------------------------------------------------
         1        2.0000           -1.0583755             -28.7999
       ...           ...                  ...                  ...
         5        2.0000           -0.5703762             -15.5207
         6        2.0000           -0.5408195             -14.7164
         7        2.0000           -0.4916376             -13.3781
         8        2.0000           -0.4896232             -13.3233
         9        2.0000           -0.4893967             -13.3172
        10        2.0000           -0.4593943             -12.5008
        11        2.0000           -0.4272444             -11.6259
        12        2.0000           -0.4270224             -11.6199
        13        2.0000           -0.4264559             -11.6045
        14        2.0000           -0.4091335             -11.1331
        15        2.0000           -0.4089987             -11.1294
        16        2.0000           -0.4083789             -11.1126
        17        2.0000           -0.3603137              -9.8046 (HOMO)
        18                         -0.1764747              -4.8021 (LUMO)
        19                         -0.1405480              -3.8245
        20                         -0.1399053              -3.8070
        21                          0.0307835               0.8377
        22                          0.0308181               0.8386
        23                          0.0312508               0.8504
        24                          0.0314705               0.8564
        25                          0.0316568               0.8614
        26                          0.0316932               0.8624
        27                          0.0326639               0.8888
        28                          0.0328184               0.8930
       ...                                ...                  ...
        37                          0.2848367               7.7508
      -------------------------------------------------------------
                  HL-Gap            0.1838390 Eh            5.0025 eV

     #   Z          covCN         q      C6AA      α(0)
     1   6 C        2.652    -0.025    28.597     8.749
     2  17 Cl       1.211    -0.325   109.619    16.018
     3  17 Cl       1.214    -0.316   109.317    15.996
     4  17 Cl       1.212    -0.320   109.465    16.007
     5   8 O        1.610    -0.669    26.909     7.001
     6   1 H        0.804     0.296     0.734     1.345
     7   1 H        0.805     0.358     0.569     1.185

Wiberg/Mayer (AO) data.
largest (>0.10) Wiberg bond orders for each atom

     #   Z sym  total        # sym  WBO       # sym  WBO       # sym  WBO
 ---------------------------------------------------------------------------
     1   6 C    2.790 --     3 Cl   0.923     4 Cl   0.920     2 Cl   0.917
     2  17 Cl   0.979 --     1 C    0.917
     3  17 Cl   0.987 --     1 C    0.923
     4  17 Cl   0.983 --     1 C    0.920
     5   8 O    1.775 --     6 H    0.891     7 H    0.871
     6   1 H    0.912 --     5 O    0.891
     7   1 H    0.872 --     5 O    0.871
 ---------------------------------------------------------------------------

molecular dipole:
                 x           y           z       tot (Debye)
 q only:       10.873       4.689      -5.015
   full:       10.535       5.255      -5.288      32.803

 projected vibrational frequencies (cm⁻¹)
eigval :       -0.00    -0.00     0.00     0.00     0.00     0.00
eigval :       28.15    33.59    65.54   103.40   221.70   232.63
eigval :      233.47   338.50   384.46   535.81   537.61   629.49
eigval :     1496.71  3450.01  3596.11

   temp. (K)  partition function   enthalpy   heat capacity  entropy
                                   cal/mol     cal/K/mol   cal/K/mol   J/K/mol
 298.15  VIB  0.298E+04             3812.933     17.734     25.345
         ROT  0.500E+06              888.752      2.981     29.058
         INT  0.149E+10             4701.685     20.715     54.404
         TR   0.154E+28             1481.254      4.968     40.625
         TOT                        6182.9392    25.6834    95.0281   397.5976

       T/K    H(0)-H(T)+PV         H(T)/Eh          T*S/Eh         G(T)/Eh
   ------------------------------------------------------------------------
    298.15    0.985314E-02    0.369342E-01    0.451509E-01   -0.821674E-02
   ------------------------------------------------------------------------

         :::::::::::::::::::::::::::::::::::::::::::::::::::::
         ::                  THERMODYNAMIC                  ::
         :::::::::::::::::::::::::::::::::::::::::::::::::::::
         :: total free energy         -21.174650460928 Eh   ::
         ::.................................................::
         :: total energy              -21.166433715962 Eh   ::
         :: zero point energy           0.027081031751 Eh   ::
         :: G(RRHO) w/o ZPVE           -0.035297776717 Eh   ::
         :: G(RRHO) contrib.           -0.008216744966 Eh   ::
         :::::::::::::::::::::::::::::::::::::::::::::::::::::

           -------------------------------------------------
          | TOTAL ENERGY              -21.166433715962 Eh   |
          | TOTAL ENTHALPY            -21.129499543394 Eh   |
          | TOTAL FREE ENERGY         -21.174650460928 Eh   |
          | GRADIENT NORM               0.000607992860 Eh/α |
          | HOMO-LUMO GAP               5.002514539347 eV   |
           -------------------------------------------------

 * finished run on 2025/10/18 at 05:46:10.018
normal termination of xtb
