   * xtb version 6.7.1 (edcfbbe) compiled by 'albert@albert-system' on 2024-07-22

   ID    Z sym.   atoms
    1    6 C      1
    2   17 Cl     2-4
    3    8 O      5
    4    1 H      6, 7

          program call               : xtb tb_lite_results_original_gp31_b0_rot270_complex.xyz --ohess --chrg -1 --alpb water
      * Solvation model:               ALPB
        Solvent                        water
        Solvent mass                       1.8000E+01 g/mol
          :  Hamiltonian                  GFN2-xTB          :
 * total energy  :   -21.1003378 Eh     change       -0.1314149E-10 Eh
 * total energy  :   -21.1464128 Eh     change       -0.4607502E-01 Eh
 * total energy  :   -21.1352339 Eh     change        0.1117896E-01 Eh
 * total energy  :   -21.1604377 Eh     change       -0.2520382E-01 Eh
 * total energy  :   -21.1638012 Eh     change       -0.3363525E-02 Eh
 * total energy  :   -21.1658286 Eh     change       -0.2027410E-02 Eh
 * total energy  :   -21.1661972 Eh     change       -0.3685278E-03 Eh
 * total energy  :   -21.1662712 Eh     change       -0.7405923E-04 Eh
 * total energy  :   -21.1663300 Eh     change       -0.5876895E-04 Eh
 * total energy  :   -21.1663707 Eh     change       -0.4068720E-04 Eh
 * total energy  :   -21.1663907 Eh     change       -0.3766198E-05 Eh
 * total energy  :   -21.1663952 Eh     change       -0.4493386E-05 Eh
 * total energy  :   -21.1663987 Eh     change       -0.3499697E-05 Eh
 * total energy  :   -21.1664048 Eh     change       -0.6175712E-05 Eh
 * total energy  :   -21.1664159 Eh     change       -0.1109670E-04 Eh
 * total energy  :   -21.1664245 Eh     change       -0.8601435E-05 Eh
 * total energy  :   -21.1664332 Eh     change       -0.8664730E-05 Eh
 * total energy  :   -21.1664359 Eh     change       -0.2739870E-05 Eh
 * total energy  :   -21.1664396 Eh     change       -0.3677375E-05 Eh
   *** GEOMETRY OPTIMIZATION CONVERGED AFTER 20 ITERATIONS ***

 final structure:
================
7
 xtb: 6.7.1 (edcfbbe)
C           -5.75536650623178       -3.05735451164082        2.58934874831361
Cl          -4.73298410148674       -1.57248860207431        2.32905012077086
Cl          -6.46680673863037       -3.41669470525870        0.95492051922906
Cl          -7.16140584526884       -2.47871562724516        3.58743155253705
O           -4.17627737455541       -5.44891732917754        3.99697559075019
H           -4.53404724131788       -4.62477493008990        3.63661902446548
H           -4.69062734120337       -6.15659359214068        3.59366409074757

          :  Hamiltonian                  GFN2-xTB          :
         :: gradient norm              0.000635277523 Eh/a0 ::
         :: HOMO-LUMO gap              4.998363448038 eV    ::
         :: SCC energy               -21.207199887902 Eh    ::
         :: -> dispersion             -0.005411854798 Eh    ::
         :: -> Gsolv                  -0.089354641148 Eh    ::
         :: repulsion energy           0.040760260519 Eh    ::

    * Orbital Energies and Occupations

         #    Occupation            Energy/Eh            Energy/eV
      -------------------------------------------------------------
         1        2.0000           -1.0583758             -28.7999
       ...           ...                  ...                  ...
         5        2.0000           -0.5703472             -15.5199
         6        2.0000           -0.5406724             -14.7124
         7        2.0000           -0.4917394             -13.3809
         8        2.0000           -0.4896500             -13.3241
         9        2.0000           -0.4893836             -13.3168
        10        2.0000           -0.4593878             -12.5006
        11        2.0000           -0.4272422             -11.6259
        12        2.0000           -0.4270066             -11.6194
        13        2.0000           -0.4264424             -11.6041
        14        2.0000           -0.4091566             -11.1337
        15        2.0000           -0.4090394             -11.1305
        16        2.0000           -0.4083881             -11.1128
        17        2.0000           -0.3601966              -9.8014 (HOMO)
        18                         -0.1765101              -4.8031 (LUMO)
        19                         -0.1404201              -3.8210
        20                         -0.1397844              -3.8037
        21                          0.0307636               0.8371
        22                          0.0307996               0.8381
        23                          0.0312349               0.8499
        24                          0.0314885               0.8568
        25                          0.0316673               0.8617
        26                          0.0317157               0.8630
        27                          0.0326587               0.8887
        28                          0.0328337               0.8935
       ...                                ...                  ...
        37                          0.2843765               7.7383
      -------------------------------------------------------------
                  HL-Gap            0.1836865 Eh            4.9984 eV

     #   Z          covCN         q      C6AA      α(0)
     1   6 C        2.652    -0.025    28.597     8.749
     2  17 Cl       1.211    -0.325   109.618    16.018
     3  17 Cl       1.213    -0.316   109.341    15.998
     4  17 Cl       1.212    -0.319   109.442    16.005
     5   8 O        1.610    -0.670    26.913     7.002
     6   1 H        0.804     0.296     0.734     1.345
     7   1 H        0.805     0.358     0.569     1.185

Wiberg/Mayer (AO) data.
largest (>0.10) Wiberg bond orders for each atom

     #   Z sym  total        # sym  WBO       # sym  WBO       # sym  WBO
 ---------------------------------------------------------------------------
     1   6 C    2.790 --     3 Cl   0.922     4 Cl   0.921     2 Cl   0.917
     2  17 Cl   0.979 --     1 C    0.917
     3  17 Cl   0.986 --     1 C    0.922
     4  17 Cl   0.984 --     1 C    0.921
     5   8 O    1.775 --     6 H    0.891     7 H    0.871
     6   1 H    0.912 --     5 O    0.891
     7   1 H    0.872 --     5 O    0.871
 ---------------------------------------------------------------------------

molecular dipole:
                 x           y           z       tot (Debye)
 q only:       10.929       4.783      -4.874
   full:       10.568       5.316      -5.179      32.824

 projected vibrational frequencies (cm⁻¹)
eigval :       -0.00    -0.00    -0.00    -0.00     0.00     0.00
eigval :      -86.48    28.32    34.98    74.44   208.80   232.06
eigval :      232.83   296.88   338.39   536.43   537.67   629.43
eigval :     1487.82  3451.47  3591.40

   temp. (K)  partition function   enthalpy   heat capacity  entropy
                                   cal/mol     cal/K/mol   cal/K/mol   J/K/mol
 298.15  VIB  0.116E+04             3418.234     16.138     22.361
         ROT  0.500E+06              888.752      2.981     29.058
         INT  0.580E+09             4306.987     19.119     51.419
         TR   0.154E+28             1481.254      4.968     40.625
         TOT                        5788.2406    24.0875    92.0437   385.1107

       T/K    H(0)-H(T)+PV         H(T)/Eh          T*S/Eh         G(T)/Eh
   ------------------------------------------------------------------------
    298.15    0.922415E-02    0.358352E-01    0.437329E-01   -0.789770E-02
   ------------------------------------------------------------------------

         :::::::::::::::::::::::::::::::::::::::::::::::::::::
         ::                  THERMODYNAMIC                  ::
         :::::::::::::::::::::::::::::::::::::::::::::::::::::
         :: total free energy         -21.174337325611 Eh   ::
         ::.................................................::
         :: total energy              -21.166439628060 Eh   ::
         :: zero point energy           0.026611066676 Eh   ::
         :: G(RRHO) w/o ZPVE           -0.034508764226 Eh   ::
         :: G(RRHO) contrib.           -0.007897697550 Eh   ::
         :::::::::::::::::::::::::::::::::::::::::::::::::::::

           -------------------------------------------------
          | TOTAL ENERGY              -21.166439628060 Eh   |
          | TOTAL ENTHALPY            -21.130604412839 Eh   |
          | TOTAL FREE ENERGY         -21.174337325611 Eh   |
          | GRADIENT NORM               0.000635129975 Eh/α |
          | HOMO-LUMO GAP               4.998363953441 eV   |
           -------------------------------------------------

 * finished run on 2025/10/18 at 05:46:06.327
normal termination of xtb
