   * xtb version 6.7.1 (edcfbbe) compiled by 'albert@albert-system' on 2024-07-22

   ID    Z sym.   atoms
    1    6 C      1
    2   17 Cl     2-4
    3    8 O      5
    4    1 H      6, 7

          program call               : xtb tb_lite_results_original_gp104_b0_rot90_complex.xyz --ohess --chrg -1 --alpb water
      * Solvation model:               ALPB
        Solvent                        water
        Solvent mass                       1.8000E+01 g/mol
          :  Hamiltonian                  GFN2-xTB          :
 * total energy  :   -21.0980146 Eh     change       -0.3207745E-09 Eh
 * total energy  :   -21.1402440 Eh     change       -0.4222937E-01 Eh
 * total energy  :   -21.1450447 Eh     change       -0.4800677E-02 Eh
 * total energy  :   -21.1608234 Eh     change       -0.1577874E-01 Eh
 * total energy  :   -21.1621509 Eh     change       -0.1327490E-02 Eh
 * total energy  :   -21.1634684 Eh     change       -0.1317477E-02 Eh
 * total energy  :   -21.1638310 Eh     change       -0.3625710E-03 Eh
 * total energy  :   -21.1639123 Eh     change       -0.8138733E-04 Eh
 * total energy  :   -21.1640263 Eh     change       -0.1139814E-03 Eh
 * total energy  :   -21.1642067 Eh     change       -0.1803828E-03 Eh
 * total energy  :   -21.1672235 Eh     change       -0.1113224E-04 Eh
 * total energy  :   -21.1672347 Eh     change       -0.1119611E-04 Eh
 * total energy  :   -21.1672457 Eh     change       -0.1103493E-04 Eh
 * total energy  :   -21.1672548 Eh     change       -0.9083227E-05 Eh
 * total energy  :   -21.1672672 Eh     change       -0.1238719E-04 Eh
 * total energy  :   -21.1672800 Eh     change       -0.1279933E-04 Eh
 * total energy  :   -21.1672881 Eh     change       -0.8082296E-05 Eh
 * total energy  :   -21.1672939 Eh     change       -0.5796130E-05 Eh
 * total energy  :   -21.1672977 Eh     change       -0.3824672E-05 Eh
   *** GEOMETRY OPTIMIZATION CONVERGED AFTER 64 ITERATIONS ***

 final structure:
================
7
 xtb: 6.7.1 (edcfbbe)
C           -6.06721847625631       -2.99795295063021        3.07494291199591
Cl          -5.79429241557944       -1.19974536234728        2.98564003830086
Cl          -7.43922571989217       -3.30988605118454        1.92095445241958
Cl          -6.79297849219042       -3.26509236072806        4.72697514163263
O           -2.26534344783203       -3.18340017352454       -0.95922040855008
H           -2.02328766184693       -2.84077375502508       -0.09283080030801
H           -3.19074603974992       -3.44191219610941       -0.90362228080398

          :  Hamiltonian                  GFN2-xTB          :
         :: gradient norm              0.000827737674 Eh/a0 ::
         :: HOMO-LUMO gap              4.959090640023 eV    ::
         :: SCC energy               -21.208863943100 Eh    ::
         :: -> dispersion             -0.004208368536 Eh    ::
         :: -> Gsolv                  -0.097701561171 Eh    ::
         :: repulsion energy           0.041566229627 Eh    ::

    * Orbital Energies and Occupations

         #    Occupation            Energy/Eh            Energy/eV
      -------------------------------------------------------------
         1        2.0000           -1.0580091             -28.7899
       ...           ...                  ...                  ...
         5        2.0000           -0.5687330             -15.4760
         6        2.0000           -0.5448903             -14.8272
         7        2.0000           -0.4934935             -13.4286
         8        2.0000           -0.4876355             -13.2692
         9        2.0000           -0.4874441             -13.2640
        10        2.0000           -0.4579607             -12.4617
        11        2.0000           -0.4315631             -11.7434
        12        2.0000           -0.4263287             -11.6010
        13        2.0000           -0.4261136             -11.5951
        14        2.0000           -0.4084379             -11.1142
        15        2.0000           -0.4083250             -11.1111
        16        2.0000           -0.4078436             -11.0980
        17        2.0000           -0.3580648              -9.7434 (HOMO)
        18                         -0.1758215              -4.7843 (LUMO)
        19                         -0.1403558              -3.8193
        20                         -0.1393429              -3.7917
        21                          0.0322383               0.8772
        22                          0.0322918               0.8787
        23                          0.0325420               0.8855
        24                          0.0326289               0.8879
        25                          0.0328350               0.8935
        26                          0.0328760               0.8946
        27                          0.0337942               0.9196
        28                          0.0339259               0.9232
       ...                                ...                  ...
        37                          0.2804066               7.6303
      -------------------------------------------------------------
                  HL-Gap            0.1822433 Eh            4.9591 eV

     #   Z          covCN         q      C6AA      α(0)
     1   6 C        2.651    -0.027    28.651     8.757
     2  17 Cl       1.213    -0.322   109.542    16.012
     3  17 Cl       1.213    -0.323   109.555    16.013
     4  17 Cl       1.212    -0.328   109.744    16.027
     5   8 O        1.610    -0.709    27.958     7.136
     6   1 H        0.805     0.356     0.574     1.190
     7   1 H        0.805     0.353     0.581     1.197

Wiberg/Mayer (AO) data.
largest (>0.10) Wiberg bond orders for each atom

     #   Z sym  total        # sym  WBO       # sym  WBO       # sym  WBO
 ---------------------------------------------------------------------------
     1   6 C    2.759 --     3 Cl   0.922     2 Cl   0.921     4 Cl   0.916
     2  17 Cl   0.983 --     1 C    0.921
     3  17 Cl   0.983 --     1 C    0.922
     4  17 Cl   0.977 --     1 C    0.916
     5   8 O    1.748 --     7 H    0.875     6 H    0.873
     6   1 H    0.873 --     5 O    0.873
     7   1 H    0.875 --     5 O    0.875
 ---------------------------------------------------------------------------

molecular dipole:
                 x           y           z       tot (Debye)
 q only:       12.131       4.984      -5.457
   full:       11.616       5.209      -5.146      34.902

 projected vibrational frequencies (cm⁻¹)
eigval :       -0.00    -0.00    -0.00     0.00     0.00     0.00
eigval :      -84.62    14.91    25.26    62.95   203.20   231.39
eigval :      231.65   234.18   335.98   529.86   532.44   615.19
eigval :     1466.51  3597.46  3603.18

   temp. (K)  partition function   enthalpy   heat capacity  entropy
                                   cal/mol     cal/K/mol   cal/K/mol   J/K/mol
 298.15  VIB  0.386E+04             3536.642     16.000     23.693
         ROT  0.859E+06              888.752      2.981     30.134
         INT  0.332E+10             4425.394     18.981     53.827
         TR   0.154E+28             1481.254      4.968     40.625
         TOT                        5906.6481    23.9493    94.4517   395.1858

       T/K    H(0)-H(T)+PV         H(T)/Eh          T*S/Eh         G(T)/Eh
   ------------------------------------------------------------------------
    298.15    0.941284E-02    0.360314E-01    0.448770E-01   -0.884567E-02
   ------------------------------------------------------------------------

         :::::::::::::::::::::::::::::::::::::::::::::::::::::
         ::                  THERMODYNAMIC                  ::
         :::::::::::::::::::::::::::::::::::::::::::::::::::::
         :: total free energy         -21.176143385669 Eh   ::
         ::.................................................::
         :: total energy              -21.167297714637 Eh   ::
         :: zero point energy           0.026618520817 Eh   ::
         :: G(RRHO) w/o ZPVE           -0.035464191849 Eh   ::
         :: G(RRHO) contrib.           -0.008845671032 Eh   ::
         :::::::::::::::::::::::::::::::::::::::::::::::::::::

           -------------------------------------------------
          | TOTAL ENERGY              -21.167297714637 Eh   |
          | TOTAL ENTHALPY            -21.131266350842 Eh   |
          | TOTAL FREE ENERGY         -21.176143385669 Eh   |
          | GRADIENT NORM               0.000826386345 Eh/α |
          | HOMO-LUMO GAP               4.959091828785 eV   |
           -------------------------------------------------

 * finished run on 2025/10/18 at 05:46:12.082
normal termination of xtb
