   * xtb version 6.7.1 (edcfbbe) compiled by 'albert@albert-system' on 2024-07-22

   ID    Z sym.   atoms
    1    6 C      1
    2   17 Cl     2-4

          program call               : xtb tb_lite_results_original_gp31_b0_rot270_solute.xyz --ohess --chrg -1
          :  Hamiltonian                  GFN2-xTB          :
 * total energy  :   -15.9338936 Eh     change       -0.5269030E-10 Eh
 * total energy  :   -15.9339106 Eh     change       -0.1701269E-04 Eh
 * total energy  :   -15.9339143 Eh     change       -0.3664543E-05 Eh
   *** GEOMETRY OPTIMIZATION CONVERGED AFTER 3 ITERATIONS ***

 final structure:
================
4
 xtb: 6.7.1 (edcfbbe)
C           -5.77037183054359       -2.77754997577502        2.58930485448414
Cl          -4.34910901297725       -1.77905245534167        2.51846150671832
Cl          -6.21025471580381       -3.76068420585534        1.22464412318763
Cl          -6.78617555560158       -2.74430441755769        3.99976156646404

          :  Hamiltonian                  GFN2-xTB          :
         :: gradient norm              0.016372965249 Eh/a0 ::
         :: HOMO-LUMO gap              1.585789978478 eV    ::
         :: SCC energy               -15.949721451792 Eh    ::
         :: -> dispersion             -0.003836420671 Eh    ::
         :: repulsion energy           0.015807168997 Eh    ::

    * Orbital Energies and Occupations

         #    Occupation            Energy/Eh            Energy/eV
      -------------------------------------------------------------
         1        2.0000           -0.8887178             -24.1832
         2        2.0000           -0.8871882             -24.1416
         3        2.0000           -0.8871867             -24.1416
         4        2.0000           -0.3762873             -10.2393
         5        2.0000           -0.3179751              -8.6525
         6        2.0000           -0.3179724              -8.6525
         7        2.0000           -0.2863344              -7.7916
         8        2.0000           -0.2542592              -6.9187
         9        2.0000           -0.2542567              -6.9187
        10        2.0000           -0.2517660              -6.8509
        11        2.0000           -0.2517639              -6.8508
        12        2.0000           -0.2457175              -6.6863
        13        2.0000           -0.0861645              -2.3447 (HOMO)
        14                         -0.0278878              -0.7589 (LUMO)
        15                          0.0890233               2.4224
        16                          0.0890333               2.4227
        17                          0.2003924               5.4530
        18                          0.2004081               5.4534
        19                          0.2004094               5.4534
        20                          0.2004888               5.4556
        21                          0.2005101               5.4562
        22                          0.2005114               5.4562
        23                          0.2013570               5.4792
        24                          0.2013582               5.4792
       ...                                ...                  ...
        31                          0.4218654              11.4795
      -------------------------------------------------------------
                  HL-Gap            0.0582767 Eh            1.5858 eV

     #   Z          covCN         q      C6AA      α(0)
     1   6 C        2.671     0.015    27.647     8.604
     2  17 Cl       1.024    -0.338   110.078    16.051
     3  17 Cl       1.024    -0.338   110.079    16.052
     4  17 Cl       1.024    -0.338   110.079    16.051

Wiberg/Mayer (AO) data.
largest (>0.10) Wiberg bond orders for each atom

     #   Z sym  total        # sym  WBO       # sym  WBO       # sym  WBO
 ---------------------------------------------------------------------------
     1   6 C    2.780 --     2 Cl   0.927     4 Cl   0.927     3 Cl   0.927
     2  17 Cl   0.999 --     1 C    0.927
     3  17 Cl   0.999 --     1 C    0.927
     4  17 Cl   0.999 --     1 C    0.927
 ---------------------------------------------------------------------------

molecular dipole:
                 x           y           z       tot (Debye)
 q only:       10.927       5.218      -4.877
   full:       10.912       5.238      -4.888      33.179

 projected vibrational frequencies (cm⁻¹)
eigval :       -0.00    -0.00     0.00     0.00     0.00     0.00
eigval :     -910.22   210.73   210.81   442.52   812.27   812.49

   temp. (K)  partition function   enthalpy   heat capacity  entropy
                                   cal/mol     cal/K/mol   cal/K/mol   J/K/mol
 298.15  VIB   2.90                  946.400      6.282      5.288
         ROT  0.367E+05              888.752      2.981     23.867
         INT  0.106E+06             1835.152      9.263     29.155
         TR   0.125E+28             1481.254      4.968     40.202
         TOT                        3316.4063    14.2312    69.3578   290.1929

       T/K    H(0)-H(T)+PV         H(T)/Eh          T*S/Eh         G(T)/Eh
   ------------------------------------------------------------------------
    298.15    0.528503E-02    0.109550E-01    0.329541E-01   -0.219992E-01
   ------------------------------------------------------------------------

         :::::::::::::::::::::::::::::::::::::::::::::::::::::
         ::                  THERMODYNAMIC                  ::
         :::::::::::::::::::::::::::::::::::::::::::::::::::::
         :: total free energy         -15.955913439297 Eh   ::
         ::.................................................::
         :: total energy              -15.933914282817 Eh   ::
         :: zero point energy           0.005669929435 Eh   ::
         :: G(RRHO) w/o ZPVE           -0.027669085915 Eh   ::
         :: G(RRHO) contrib.           -0.021999156480 Eh   ::
         :::::::::::::::::::::::::::::::::::::::::::::::::::::

           -------------------------------------------------
          | TOTAL ENERGY              -15.933914282817 Eh   |
          | TOTAL ENTHALPY            -15.922959323608 Eh   |
          | TOTAL FREE ENERGY         -15.955913439297 Eh   |
          | GRADIENT NORM               0.016372303693 Eh/α |
          | HOMO-LUMO GAP               1.585790219818 eV   |
           -------------------------------------------------

 * finished run on 2025/10/18 at 05:46:06.544
normal termination of xtb
