   * xtb version 6.7.1 (edcfbbe) compiled by 'albert@albert-system' on 2024-07-22

   ID    Z sym.   atoms
    1    6 C      1
    2   17 Cl     2-4
    3    8 O      5
    4    1 H      6, 7

          program call               : xtb tb_lite_results_original_gp31_b0_rot0_complex.xyz --ohess --chrg -1 --alpb water
      * Solvation model:               ALPB
        Solvent                        water
        Solvent mass                       1.8000E+01 g/mol
          :  Hamiltonian                  GFN2-xTB          :
 * total energy  :   -21.1003267 Eh     change       -0.2215117E-10 Eh
 * total energy  :   -21.1473054 Eh     change       -0.4697869E-01 Eh
 * total energy  :   -21.1352555 Eh     change        0.1204988E-01 Eh
 * total energy  :   -21.1609140 Eh     change       -0.2565843E-01 Eh
 * total energy  :   -21.1639834 Eh     change       -0.3069451E-02 Eh
 * total energy  :   -21.1657970 Eh     change       -0.1813529E-02 Eh
 * total energy  :   -21.1661532 Eh     change       -0.3562862E-03 Eh
 * total energy  :   -21.1662338 Eh     change       -0.8060713E-04 Eh
 * total energy  :   -21.1662895 Eh     change       -0.5568148E-04 Eh
 * total energy  :   -21.1663382 Eh     change       -0.4866964E-04 Eh
 * total energy  :   -21.1663863 Eh     change       -0.1220340E-04 Eh
 * total energy  :   -21.1663983 Eh     change       -0.1200946E-04 Eh
 * total energy  :   -21.1664110 Eh     change       -0.1269643E-04 Eh
 * total energy  :   -21.1664282 Eh     change       -0.1721498E-04 Eh
 * total energy  :   -21.1664397 Eh     change       -0.1155721E-04 Eh
 * total energy  :   -21.1664515 Eh     change       -0.1179711E-04 Eh
 * total energy  :   -21.1664485 Eh     change        0.3040777E-05 Eh
 * total energy  :   -21.1664600 Eh     change       -0.1154508E-04 Eh
 * total energy  :   -21.1664612 Eh     change       -0.1191833E-05 Eh
   *** GEOMETRY OPTIMIZATION CONVERGED AFTER 22 ITERATIONS ***

 final structure:
================
7
 xtb: 6.7.1 (edcfbbe)
C           -5.76625306267832       -3.03162546069515        2.67290741128473
Cl          -4.66959891424561       -1.63046744065333        2.28388526395014
Cl          -6.50528579115502       -3.49499385327390        1.07687149673350
Cl          -7.13363718155397       -2.29673459949919        3.61866982433701
O           -4.24816696111547       -5.43120991732670        4.10536635228210
H           -4.56659811816387       -4.64719002478263        3.63498657024365
H           -5.02944075280012       -5.84690027258101        4.48519375278842

          :  Hamiltonian                  GFN2-xTB          :
         :: gradient norm              0.000289926708 Eh/a0 ::
         :: HOMO-LUMO gap              4.994632225193 eV    ::
         :: SCC energy               -21.207258434581 Eh    ::
         :: -> dispersion             -0.005423253720 Eh    ::
         :: -> Gsolv                  -0.089398932916 Eh    ::
         :: repulsion energy           0.040797197845 Eh    ::

    * Orbital Energies and Occupations

         #    Occupation            Energy/Eh            Energy/eV
      -------------------------------------------------------------
         1        2.0000           -1.0584033             -28.8006
       ...           ...                  ...                  ...
         5        2.0000           -0.5703943             -15.5212
         6        2.0000           -0.5406048             -14.7106
         7        2.0000           -0.4914411             -13.3728
         8        2.0000           -0.4897434             -13.3266
         9        2.0000           -0.4894420             -13.3184
        10        2.0000           -0.4593741             -12.5002
        11        2.0000           -0.4272724             -11.6267
        12        2.0000           -0.4270228             -11.6199
        13        2.0000           -0.4262233             -11.5981
        14        2.0000           -0.4091979             -11.1348
        15        2.0000           -0.4091044             -11.1323
        16        2.0000           -0.4084018             -11.1132
        17        2.0000           -0.3601249              -9.7995 (HOMO)
        18                         -0.1765755              -4.8049 (LUMO)
        19                         -0.1403104              -3.8180
        20                         -0.1397532              -3.8029
        21                          0.0307137               0.8358
        22                          0.0307414               0.8365
        23                          0.0311978               0.8489
        24                          0.0314994               0.8571
        25                          0.0316104               0.8602
        26                          0.0316553               0.8614
        27                          0.0326306               0.8879
        28                          0.0327785               0.8919
       ...                                ...                  ...
        37                          0.2857600               7.7759
      -------------------------------------------------------------
                  HL-Gap            0.1835494 Eh            4.9946 eV

     #   Z          covCN         q      C6AA      α(0)
     1   6 C        2.652    -0.024    28.593     8.748
     2  17 Cl       1.210    -0.325   109.620    16.018
     3  17 Cl       1.212    -0.319   109.422    16.004
     4  17 Cl       1.213    -0.316   109.333    15.997
     5   8 O        1.610    -0.670    26.925     7.003
     6   1 H        0.804     0.295     0.736     1.348
     7   1 H        0.805     0.359     0.568     1.184

Wiberg/Mayer (AO) data.
largest (>0.10) Wiberg bond orders for each atom

     #   Z sym  total        # sym  WBO       # sym  WBO       # sym  WBO
 ---------------------------------------------------------------------------
     1   6 C    2.792 --     4 Cl   0.923     3 Cl   0.921     2 Cl   0.917
     2  17 Cl   0.979 --     1 C    0.917
     3  17 Cl   0.984 --     1 C    0.921
     4  17 Cl   0.987 --     1 C    0.923
     5   8 O    1.775 --     6 H    0.890     7 H    0.871
     6   1 H    0.913 --     5 O    0.890
     7   1 H    0.871 --     5 O    0.871
 ---------------------------------------------------------------------------

molecular dipole:
                 x           y           z       tot (Debye)
 q only:       10.732       4.938      -4.464
   full:       10.391       5.468      -4.788      32.232

 projected vibrational frequencies (cm⁻¹)
eigval :       -0.00    -0.00    -0.00     0.00     0.00     0.00
eigval :      -51.38    28.80    34.31    66.64   230.62   232.32
eigval :      237.45   338.37   354.16   536.39   538.04   629.63
eigval :     1495.22  3442.78  3593.86

   temp. (K)  partition function   enthalpy   heat capacity  entropy
                                   cal/mol     cal/K/mol   cal/K/mol   J/K/mol
 298.15  VIB  0.111E+04             3360.813     15.911     21.980
         ROT  0.498E+06              888.752      2.981     29.051
         INT  0.552E+09             4249.566     18.892     51.031
         TR   0.154E+28             1481.254      4.968     40.625
         TOT                        5730.8195    23.8599    91.6555   383.4867

       T/K    H(0)-H(T)+PV         H(T)/Eh          T*S/Eh         G(T)/Eh
   ------------------------------------------------------------------------
    298.15    0.913264E-02    0.359207E-01    0.435485E-01   -0.762783E-02
   ------------------------------------------------------------------------

         :::::::::::::::::::::::::::::::::::::::::::::::::::::
         ::                  THERMODYNAMIC                  ::
         :::::::::::::::::::::::::::::::::::::::::::::::::::::
         :: total free energy         -21.174089068388 Eh   ::
         ::.................................................::
         :: total energy              -21.166461235322 Eh   ::
         :: zero point energy           0.026788022528 Eh   ::
         :: G(RRHO) w/o ZPVE           -0.034415855594 Eh   ::
         :: G(RRHO) contrib.           -0.007627833066 Eh   ::
         :::::::::::::::::::::::::::::::::::::::::::::::::::::

           -------------------------------------------------
          | TOTAL ENERGY              -21.166461235322 Eh   |
          | TOTAL ENTHALPY            -21.130540570682 Eh   |
          | TOTAL FREE ENERGY         -21.174089068388 Eh   |
          | GRADIENT NORM               0.000289956136 Eh/α |
          | HOMO-LUMO GAP               4.994632462932 eV   |
           -------------------------------------------------

 * finished run on 2025/10/18 at 05:46:04.818
normal termination of xtb
