   * xtb version 6.7.1 (edcfbbe) compiled by 'albert@albert-system' on 2024-07-22

   ID    Z sym.   atoms
    1    6 C      1
    2   17 Cl     2-4
    3    8 O      5
    4    1 H      6, 7

          program call               : xtb tb_lite_results_shiftn0p05_gp31_b0_rot0_complex.xyz --ohess --chrg -1 --alpb water
      * Solvation model:               ALPB
        Solvent                        water
        Solvent mass                       1.8000E+01 g/mol
          :  Hamiltonian                  GFN2-xTB          :
 * total energy  :   -21.1000563 Eh     change       -0.3341327E-10 Eh
 * total energy  :   -21.1467141 Eh     change       -0.4665787E-01 Eh
 * total energy  :   -21.1367866 Eh     change        0.9927571E-02 Eh
 * total energy  :   -21.1612198 Eh     change       -0.2443328E-01 Eh
 * total energy  :   -21.1640887 Eh     change       -0.2868893E-02 Eh
 * total energy  :   -21.1658925 Eh     change       -0.1803771E-02 Eh
 * total energy  :   -21.1661710 Eh     change       -0.2785029E-03 Eh
 * total energy  :   -21.1662356 Eh     change       -0.6458411E-04 Eh
 * total energy  :   -21.1662947 Eh     change       -0.5910604E-04 Eh
 * total energy  :   -21.1663362 Eh     change       -0.4149666E-04 Eh
 * total energy  :   -21.1663566 Eh     change       -0.1079555E-04 Eh
 * total energy  :   -21.1663643 Eh     change       -0.7772540E-05 Eh
 * total energy  :   -21.1663825 Eh     change       -0.1819061E-04 Eh
 * total energy  :   -21.1663954 Eh     change       -0.1288513E-04 Eh
 * total energy  :   -21.1664089 Eh     change       -0.1352075E-04 Eh
 * total energy  :   -21.1664240 Eh     change       -0.1507569E-04 Eh
 * total energy  :   -21.1664430 Eh     change       -0.1901922E-04 Eh
 * total energy  :   -21.1664455 Eh     change       -0.2508023E-05 Eh
 * total energy  :   -21.1664492 Eh     change       -0.3678049E-05 Eh
   *** GEOMETRY OPTIMIZATION CONVERGED AFTER 20 ITERATIONS ***

 final structure:
================
7
 xtb: 6.7.1 (edcfbbe)
C           -5.75459991925324       -2.99449766985455        2.68126538145522
Cl          -4.61451759472276       -1.61529373286285        2.33805341202310
Cl          -6.51799255103318       -3.37019302264431        1.07445499787677
Cl          -7.09129071784468       -2.25093914858192        3.66445935419996
O           -4.30517360420670       -5.48136580931462        4.04198384261146
H           -4.59627670043170       -4.67964039584085        3.58386824055569
H           -5.09848311518094       -5.86287629252813        4.43444202193635

          :  Hamiltonian                  GFN2-xTB          :
         :: gradient norm              0.000971548642 Eh/a0 ::
         :: HOMO-LUMO gap              4.997841050191 eV    ::
         :: SCC energy               -21.207116665279 Eh    ::
         :: -> dispersion             -0.005419849704 Eh    ::
         :: -> Gsolv                  -0.089354552035 Eh    ::
         :: repulsion energy           0.040667461116 Eh    ::

    * Orbital Energies and Occupations

         #    Occupation            Energy/Eh            Energy/eV
      -------------------------------------------------------------
         1        2.0000           -1.0584021             -28.8006
       ...           ...                  ...                  ...
         5        2.0000           -0.5704056             -15.5215
         6        2.0000           -0.5405756             -14.7098
         7        2.0000           -0.4915839             -13.3767
         8        2.0000           -0.4897057             -13.3256
         9        2.0000           -0.4894328             -13.3181
        10        2.0000           -0.4593862             -12.5005
        11        2.0000           -0.4272788             -11.6268
        12        2.0000           -0.4270230             -11.6199
        13        2.0000           -0.4262948             -11.6001
        14        2.0000           -0.4091675             -11.1340
        15        2.0000           -0.4090783             -11.1316
        16        2.0000           -0.4083969             -11.1130
        17        2.0000           -0.3602275              -9.8023 (HOMO)
        18                         -0.1765602              -4.8044 (LUMO)
        19                         -0.1405519              -3.8246
        20                         -0.1397363              -3.8024
        21                          0.0307321               0.8363
        22                          0.0307635               0.8371
        23                          0.0312073               0.8492
        24                          0.0314591               0.8560
        25                          0.0316252               0.8606
        26                          0.0316712               0.8618
        27                          0.0326261               0.8878
        28                          0.0327907               0.8923
       ...                                ...                  ...
        37                          0.2844836               7.7412
      -------------------------------------------------------------
                  HL-Gap            0.1836673 Eh            4.9978 eV

     #   Z          covCN         q      C6AA      α(0)
     1   6 C        2.652    -0.024    28.595     8.749
     2  17 Cl       1.211    -0.325   109.632    16.019
     3  17 Cl       1.213    -0.318   109.410    16.003
     4  17 Cl       1.213    -0.316   109.340    15.998
     5   8 O        1.609    -0.670    26.917     7.002
     6   1 H        0.804     0.295     0.735     1.347
     7   1 H        0.805     0.359     0.568     1.184

Wiberg/Mayer (AO) data.
largest (>0.10) Wiberg bond orders for each atom

     #   Z sym  total        # sym  WBO       # sym  WBO       # sym  WBO
 ---------------------------------------------------------------------------
     1   6 C    2.792 --     4 Cl   0.923     3 Cl   0.922     2 Cl   0.916
     2  17 Cl   0.979 --     1 C    0.916
     3  17 Cl   0.985 --     1 C    0.922
     4  17 Cl   0.986 --     1 C    0.923
     5   8 O    1.775 --     6 H    0.890     7 H    0.871
     6   1 H    0.913 --     5 O    0.890
     7   1 H    0.871 --     5 O    0.871
 ---------------------------------------------------------------------------

molecular dipole:
                 x           y           z       tot (Debye)
 q only:       10.690       4.857      -4.508
   full:       10.364       5.412      -4.810      32.135

 projected vibrational frequencies (cm⁻¹)
eigval :       -0.00    -0.00    -0.00    -0.00    -0.00     0.00
eigval :      -30.22    31.05    34.62    68.84   224.86   232.29
eigval :      233.97   338.44   348.55   535.68   538.20   629.69
eigval :     1493.21  3444.01  3583.73

   temp. (K)  partition function   enthalpy   heat capacity  entropy
                                   cal/mol     cal/K/mol   cal/K/mol   J/K/mol
 298.15  VIB  0.103E+04             3367.116     15.995     22.013
         ROT  0.499E+06              888.752      2.981     29.053
         INT  0.512E+09             4255.868     18.976     51.066
         TR   0.154E+28             1481.254      4.968     40.625
         TOT                        5737.1219    23.9440    91.6907   383.6337

       T/K    H(0)-H(T)+PV         H(T)/Eh          T*S/Eh         G(T)/Eh
   ------------------------------------------------------------------------
    298.15    0.914269E-02    0.358819E-01    0.435652E-01   -0.768330E-02
   ------------------------------------------------------------------------

         :::::::::::::::::::::::::::::::::::::::::::::::::::::
         ::                  THERMODYNAMIC                  ::
         :::::::::::::::::::::::::::::::::::::::::::::::::::::
         :: total free energy         -21.174132507195 Eh   ::
         ::.................................................::
         :: total energy              -21.166449202979 Eh   ::
         :: zero point energy           0.026739203538 Eh   ::
         :: G(RRHO) w/o ZPVE           -0.034422507755 Eh   ::
         :: G(RRHO) contrib.           -0.007683304217 Eh   ::
         :::::::::::::::::::::::::::::::::::::::::::::::::::::

           -------------------------------------------------
          | TOTAL ENERGY              -21.166449202979 Eh   |
          | TOTAL ENTHALPY            -21.130567313796 Eh   |
          | TOTAL FREE ENERGY         -21.174132507195 Eh   |
          | GRADIENT NORM               0.000971155503 Eh/α |
          | HOMO-LUMO GAP               4.997842412792 eV   |
           -------------------------------------------------

 * finished run on 2025/10/18 at 05:46:07.843
normal termination of xtb
