   * xtb version 6.7.1 (edcfbbe) compiled by 'albert@albert-system' on 2024-07-22

   ID    Z sym.   atoms
    1    6 C      1
    2    1 H      2, 4, 5
    3    8 O      3, 6

          program call               : xtb tb_lite_results_shiftn0p2_gp394_b0_rot180_solute.xyz --ohess --chrg -1
          :  Hamiltonian                  GFN2-xTB          :
 * total energy  :   -11.8750212 Eh     change       -0.4843237E-10 Eh
 * total energy  :   -11.8764490 Eh     change       -0.1427731E-02 Eh
 * total energy  :   -11.8766889 Eh     change       -0.2399138E-03 Eh
 * total energy  :   -11.8766994 Eh     change       -0.1051222E-04 Eh
 * total energy  :   -11.8767020 Eh     change       -0.2585206E-05 Eh
   *** GEOMETRY OPTIMIZATION CONVERGED AFTER 5 ITERATIONS ***

 final structure:
================
6
 xtb: 6.7.1 (edcfbbe)
C           -7.13952619214624       -4.41973360063059        1.58950349860686
H           -7.87465987123080       -3.59280934760537        1.54420195686899
O           -7.62212184160930       -5.58560410866993        1.05084194631221
H           -6.22134948250865       -4.06411043219193        1.08286202994451
H           -6.90085651732841       -4.61924363124677        2.64880516683291
O           -7.94297531230188       -5.35420801555987       -0.33866656138853

          :  Hamiltonian                  GFN2-xTB          :
         :: gradient norm              0.000576094616 Eh/a0 ::
         :: HOMO-LUMO gap              6.560316786076 eV    ::
         :: SCC energy               -11.932078263147 Eh    ::
         :: -> dispersion             -0.002054682658 Eh    ::
         :: repulsion energy           0.055376285223 Eh    ::

    * Orbital Energies and Occupations

         #    Occupation            Energy/Eh            Energy/eV
      -------------------------------------------------------------
         1        2.0000           -0.4566648             -12.4265
         2        2.0000           -0.4101694             -11.1613
         3        2.0000           -0.3525624              -9.5937
         4        2.0000           -0.3271943              -8.9034
         5        2.0000           -0.3194320              -8.6922
         6        2.0000           -0.3027892              -8.2393
         7        2.0000           -0.2274723              -6.1898
         8        2.0000           -0.2077301              -5.6526
         9        2.0000           -0.0933329              -2.5397
        10        2.0000           -0.0785796              -2.1383 (HOMO)
        11                          0.1625076               4.4221 (LUMO)
        12                          0.3070701               8.3558
        13                          0.3482696               9.4769
        14                          0.3631859               9.8828
        15                          0.4048736              11.0172
      -------------------------------------------------------------
                  HL-Gap            0.2410872 Eh            6.5603 eV

     #   Z          covCN         q      C6AA      α(0)
     1   6 C        3.624     0.120    19.032     6.287
     2   1 H        0.922    -0.023     3.494     2.923
     3   8 O        1.766    -0.338    19.657     5.987
     4   1 H        0.922    -0.023     3.493     2.923
     5   1 H        0.923    -0.041     3.868     3.076
     6   8 O        0.918    -0.695    28.524     7.162

Wiberg/Mayer (AO) data.
largest (>0.10) Wiberg bond orders for each atom

     #   Z sym  total        # sym  WBO       # sym  WBO       # sym  WBO
 ---------------------------------------------------------------------------
     1   6 C    3.987 --     3 O    1.059     5 H    0.971     4 H    0.970
                             2 H    0.970
     2   1 H    0.999 --     1 C    0.970
     3   8 O    2.012 --     1 C    1.059     6 O    0.900
     4   1 H    0.999 --     1 C    0.970
     5   1 H    0.998 --     1 C    0.971
     6   8 O    0.951 --     3 O    0.900
 ---------------------------------------------------------------------------

molecular dipole:
                 x           y           z       tot (Debye)
 q only:       14.829      10.287      -0.185
   full:       14.965      10.488       0.100      46.450

 projected vibrational frequencies (cm⁻¹)
eigval :       -0.00    -0.00    -0.00     0.00     0.00     0.00
eigval :      182.09   381.66   944.42  1073.73  1143.54  1197.60
eigval :     1397.29  1464.54  1525.11  2721.72  2779.54  2818.76

   temp. (K)  partition function   enthalpy   heat capacity  entropy
                                   cal/mol     cal/K/mol   cal/K/mol   J/K/mol
 298.15  VIB   2.09                  656.285      4.827      3.662
         ROT  0.120E+05              888.752      2.981     21.646
         INT  0.250E+05             1545.037      7.808     25.308
         TR   0.312E+27             1481.254      4.968     37.453
         TOT                        3026.2909    12.7759    62.7605   262.5901

       T/K    H(0)-H(T)+PV         H(T)/Eh          T*S/Eh         G(T)/Eh
   ------------------------------------------------------------------------
    298.15    0.482270E-02    0.449868E-01    0.298196E-01    0.151673E-01
   ------------------------------------------------------------------------

         :::::::::::::::::::::::::::::::::::::::::::::::::::::
         ::                  THERMODYNAMIC                  ::
         :::::::::::::::::::::::::::::::::::::::::::::::::::::
         :: total free energy         -11.861534721712 Eh   ::
         ::.................................................::
         :: total energy              -11.876701977924 Eh   ::
         :: zero point energy           0.040164115894 Eh   ::
         :: G(RRHO) w/o ZPVE           -0.024996859681 Eh   ::
         :: G(RRHO) contrib.            0.015167256213 Eh   ::
         :::::::::::::::::::::::::::::::::::::::::::::::::::::

           -------------------------------------------------
          | TOTAL ENERGY              -11.876701977924 Eh   |
          | TOTAL ENTHALPY            -11.831715160524 Eh   |
          | TOTAL FREE ENERGY         -11.861534721712 Eh   |
          | GRADIENT NORM               0.000576092853 Eh/α |
          | HOMO-LUMO GAP               6.560315859151 eV   |
           -------------------------------------------------

 * finished run on 2025/10/18 at 02:39:22.140
normal termination of xtb
