   * xtb version 6.7.1 (edcfbbe) compiled by 'albert@albert-system' on 2024-07-22

   ID    Z sym.   atoms
    1    6 C      1
    2    1 H      2, 4, 5, 8, 9
    3    8 O      3, 6, 7

          program call               : xtb tb_lite_results_shiftn0p25_gp400_b0_rot180_complex.xyz --ohess --chrg -1 --alpb water
      * Solvation model:               ALPB
        Solvent                        water
        Solvent mass                       1.8000E+01 g/mol
          :  Hamiltonian                  GFN2-xTB          :
 * total energy  :   -17.1007490 Eh     change       -0.2259526E-11 Eh
 * total energy  :   -17.1049207 Eh     change       -0.4171773E-02 Eh
 * total energy  :   -17.1055973 Eh     change       -0.6765249E-03 Eh
 * total energy  :   -17.1057293 Eh     change       -0.1320333E-03 Eh
 * total energy  :   -17.1057837 Eh     change       -0.5436732E-04 Eh
 * total energy  :   -17.1057960 Eh     change       -0.1228546E-04 Eh
 * total energy  :   -17.1058093 Eh     change       -0.1332630E-04 Eh
 * total energy  :   -17.1058169 Eh     change       -0.7666548E-05 Eh
 * total energy  :   -17.1058303 Eh     change       -0.1330876E-04 Eh
 * total energy  :   -17.1058412 Eh     change       -0.1094804E-04 Eh
 * total energy  :   -17.1058631 Eh     change       -0.2193496E-04 Eh
 * total energy  :   -17.1058755 Eh     change       -0.1233509E-04 Eh
 * total energy  :   -17.1058784 Eh     change       -0.2896244E-05 Eh
 * total energy  :   -17.1058837 Eh     change       -0.5380083E-05 Eh
 * total energy  :   -17.1058863 Eh     change       -0.2598379E-05 Eh
   *** GEOMETRY OPTIMIZATION CONVERGED AFTER 15 ITERATIONS ***

 final structure:
================
9
 xtb: 6.7.1 (edcfbbe)
C           -7.12107495066558       -4.38480274531939        1.58962727894932
H           -7.76824076802237       -3.51220384249536        1.44738116468504
O           -7.73688632385770       -5.55156959338697        1.09077383003637
H           -6.16256111569388       -4.20847903142972        1.08921477913657
H           -6.97716903296551       -4.59668610161388        2.64787817685534
O           -7.98647210811047       -5.43389144950705       -0.31270609167956
O           -5.64518628573537       -5.33731279298751       -1.48031747518312
H           -6.54920865975498       -5.34980913193149       -1.03493817767664
H           -5.55155982311045       -6.21913653532570       -1.85507891380147

          :  Hamiltonian                  GFN2-xTB          :
         :: gradient norm              0.000667963261 Eh/a0 ::
         :: HOMO-LUMO gap              7.018125354239 eV    ::
         :: SCC energy               -17.190880436128 Eh    ::
         :: -> dispersion             -0.003264265940 Eh    ::
         :: -> Gsolv                  -0.134295175337 Eh    ::
         :: repulsion energy           0.084994091465 Eh    ::

    * Orbital Energies and Occupations

         #    Occupation            Energy/Eh            Energy/eV
      -------------------------------------------------------------
         1        2.0000           -0.6769520             -18.4208
         2        2.0000           -0.6478965             -17.6302
         3        2.0000           -0.6173510             -16.7990
         4        2.0000           -0.5950847             -16.1931
         5        2.0000           -0.5339522             -14.5296
         6        2.0000           -0.5237273             -14.2513
         7        2.0000           -0.5216973             -14.1961
         8        2.0000           -0.5161686             -14.0457
         9        2.0000           -0.4821382             -13.1196
        10        2.0000           -0.4502880             -12.2530
        11        2.0000           -0.4314198             -11.7395
        12        2.0000           -0.4126015             -11.2275
        13        2.0000           -0.3586028              -9.7581
        14        2.0000           -0.3375459              -9.1851 (HOMO)
        15                         -0.0796346              -2.1670 (LUMO)
        16                          0.1031675               2.8073
        17                          0.1274174               3.4672
        18                          0.1508817               4.1057
        19                          0.2091305               5.6907
        20                          0.2292095               6.2371
        21                          0.2959689               8.0537
      -------------------------------------------------------------
                  HL-Gap            0.2579113 Eh            7.0181 eV

     #   Z          covCN         q      C6AA      α(0)
     1   6 C        3.624     0.067    19.878     6.425
     2   1 H        0.924     0.028     2.620     2.531
     3   8 O        1.774    -0.359    20.037     6.044
     4   1 H        0.924     0.035     2.520     2.483
     5   1 H        0.925     0.057     2.231     2.336
     6   8 O        0.928    -0.742    29.835     7.325
     7   8 O        1.602    -0.716    28.151     7.161
     8   1 H        0.799     0.294     0.740     1.352
     9   1 H        0.805     0.337     0.621     1.237

Wiberg/Mayer (AO) data.
largest (>0.10) Wiberg bond orders for each atom

     #   Z sym  total        # sym  WBO       # sym  WBO       # sym  WBO
 ---------------------------------------------------------------------------
     1   6 C    3.950 --     3 O    0.998     2 H    0.980     4 H    0.978
                             5 H    0.973
     2   1 H    0.999 --     1 C    0.980
     3   8 O    1.986 --     1 C    0.998     6 O    0.953
     4   1 H    0.999 --     1 C    0.978
     5   1 H    0.997 --     1 C    0.973
     6   8 O    1.163 --     3 O    0.953     8 H    0.110
     7   8 O    1.743 --     9 H    0.886     8 H    0.801
     8   1 H    0.913 --     7 O    0.801     6 O    0.110
     9   1 H    0.887 --     7 O    0.886
 ---------------------------------------------------------------------------

molecular dipole:
                 x           y           z       tot (Debye)
 q only:       14.451      10.169       0.582
   full:       14.355      10.108       0.671      44.656

 projected vibrational frequencies (cm⁻¹)
eigval :       -0.00    -0.00    -0.00     0.00     0.00     0.00
eigval :      -61.09    64.94   112.68   207.53   318.32   413.81
eigval :      546.64   925.93   947.31  1069.31  1129.94  1178.37
eigval :     1361.14  1427.97  1485.84  1540.44  2630.55  2887.57
eigval :     2917.30  2987.91  3607.27

   temp. (K)  partition function   enthalpy   heat capacity  entropy
                                   cal/mol     cal/K/mol   cal/K/mol   J/K/mol
 298.15  VIB   23.1                 1968.372     11.721     12.562
         ROT  0.751E+05              888.752      2.981     25.291
         INT  0.174E+07             2857.125     14.702     37.853
         TR   0.508E+27             1481.254      4.968     38.419
         TOT                        4338.3787    19.6703    76.2716   319.1203

       T/K    H(0)-H(T)+PV         H(T)/Eh          T*S/Eh         G(T)/Eh
   ------------------------------------------------------------------------
    298.15    0.691365E-02    0.701573E-01    0.362391E-01    0.339182E-01
   ------------------------------------------------------------------------

         :::::::::::::::::::::::::::::::::::::::::::::::::::::
         ::                  THERMODYNAMIC                  ::
         :::::::::::::::::::::::::::::::::::::::::::::::::::::
         :: total free energy         -17.071968110197 Eh   ::
         ::.................................................::
         :: total energy              -17.105886344242 Eh   ::
         :: zero point energy           0.063243680179 Eh   ::
         :: G(RRHO) w/o ZPVE           -0.029325446134 Eh   ::
         :: G(RRHO) contrib.            0.033918234045 Eh   ::
         :::::::::::::::::::::::::::::::::::::::::::::::::::::

           -------------------------------------------------
          | TOTAL ENERGY              -17.105886344242 Eh   |
          | TOTAL ENTHALPY            -17.035729017597 Eh   |
          | TOTAL FREE ENERGY         -17.071968110197 Eh   |
          | GRADIENT NORM               0.000668074850 Eh/α |
          | HOMO-LUMO GAP               7.018124854707 eV   |
           -------------------------------------------------

 * finished run on 2025/10/18 at 02:39:21.139
normal termination of xtb
