   * xtb version 6.7.1 (edcfbbe) compiled by 'albert@albert-system' on 2024-07-22

   ID    Z sym.   atoms
    1    6 C      1
    2    1 H      2, 4, 5, 8, 9
    3    8 O      3, 6, 7

          program call               : xtb tb_lite_results_shiftn0p2_gp394_b0_rot180_complex.xyz --ohess --chrg -1 --alpb water
      * Solvation model:               ALPB
        Solvent                        water
        Solvent mass                       1.8000E+01 g/mol
          :  Hamiltonian                  GFN2-xTB          :
 * total energy  :   -17.1013752 Eh     change       -0.2213341E-11 Eh
 * total energy  :   -17.1049451 Eh     change       -0.3569873E-02 Eh
 * total energy  :   -17.1056361 Eh     change       -0.6909822E-03 Eh
 * total energy  :   -17.1057328 Eh     change       -0.9673041E-04 Eh
 * total energy  :   -17.1058014 Eh     change       -0.6863695E-04 Eh
 * total energy  :   -17.1058144 Eh     change       -0.1293733E-04 Eh
 * total energy  :   -17.1058327 Eh     change       -0.1829354E-04 Eh
 * total energy  :   -17.1058406 Eh     change       -0.7926364E-05 Eh
 * total energy  :   -17.1058630 Eh     change       -0.2244955E-04 Eh
 * total energy  :   -17.1058819 Eh     change       -0.1891283E-04 Eh
 * total energy  :   -17.1058985 Eh     change       -0.1656462E-04 Eh
 * total energy  :   -17.1059063 Eh     change       -0.7775714E-05 Eh
 * total energy  :   -17.1059067 Eh     change       -0.3688349E-06 Eh
 * total energy  :   -17.1059136 Eh     change       -0.6959683E-05 Eh
 * total energy  :   -17.1059150 Eh     change       -0.1406432E-05 Eh
   *** GEOMETRY OPTIMIZATION CONVERGED AFTER 15 ITERATIONS ***

 final structure:
================
9
 xtb: 6.7.1 (edcfbbe)
C           -7.14293592370810       -4.38015041571102        1.57822453659881
H           -7.99698981761922       -3.69476488208718        1.59181845193784
O           -7.51283988314964       -5.62464983190016        1.02725067893625
H           -6.32594686808152       -3.92885656041423        1.00498903352045
H           -6.82203935101768       -4.62618834281995        2.58914684931193
O           -7.97333807256650       -5.46821138961445       -0.31710631866719
O          -10.19300015729430       -4.08135649771812       -0.23199787033444
H           -9.32653789318747       -4.59438713159429       -0.26661275069913
H          -10.85949597390539       -4.72050028273001       -0.50375419450598

          :  Hamiltonian                  GFN2-xTB          :
         :: gradient norm              0.000509351260 Eh/a0 ::
         :: HOMO-LUMO gap              7.029572847258 eV    ::
         :: SCC energy               -17.191067810908 Eh    ::
         :: -> dispersion             -0.003253319866 Eh    ::
         :: -> Gsolv                  -0.134381031885 Eh    ::
         :: repulsion energy           0.085152792522 Eh    ::

    * Orbital Energies and Occupations

         #    Occupation            Energy/Eh            Energy/eV
      -------------------------------------------------------------
         1        2.0000           -0.6768843             -18.4190
         2        2.0000           -0.6479260             -17.6310
         3        2.0000           -0.6172942             -16.7974
         4        2.0000           -0.5951177             -16.1940
         5        2.0000           -0.5339877             -14.5305
         6        2.0000           -0.5238129             -14.2537
         7        2.0000           -0.5216728             -14.1954
         8        2.0000           -0.5162505             -14.0479
         9        2.0000           -0.4821700             -13.1205
        10        2.0000           -0.4502777             -12.2527
        11        2.0000           -0.4314163             -11.7394
        12        2.0000           -0.4126786             -11.2296
        13        2.0000           -0.3584493              -9.7539
        14        2.0000           -0.3373389              -9.1795 (HOMO)
        15                         -0.0790068              -2.1499 (LUMO)
        16                          0.1032871               2.8106
        17                          0.1279842               3.4826
        18                          0.1509765               4.1083
        19                          0.2098040               5.7091
        20                          0.2292518               6.2383
        21                          0.2961449               8.0585
      -------------------------------------------------------------
                  HL-Gap            0.2583321 Eh            7.0296 eV

     #   Z          covCN         q      C6AA      α(0)
     1   6 C        3.624     0.067    19.875     6.425
     2   1 H        0.924     0.034     2.525     2.485
     3   8 O        1.775    -0.359    20.045     6.046
     4   1 H        0.924     0.028     2.616     2.530
     5   1 H        0.925     0.057     2.233     2.337
     6   8 O        0.928    -0.742    29.829     7.325
     7   8 O        1.602    -0.716    28.144     7.160
     8   1 H        0.799     0.294     0.740     1.352
     9   1 H        0.805     0.337     0.620     1.237

Wiberg/Mayer (AO) data.
largest (>0.10) Wiberg bond orders for each atom

     #   Z sym  total        # sym  WBO       # sym  WBO       # sym  WBO
 ---------------------------------------------------------------------------
     1   6 C    3.950 --     3 O    0.998     4 H    0.980     2 H    0.979
                             5 H    0.973
     2   1 H    0.999 --     1 C    0.979
     3   8 O    1.986 --     1 C    0.998     6 O    0.953
     4   1 H    0.999 --     1 C    0.980
     5   1 H    0.997 --     1 C    0.973
     6   8 O    1.162 --     3 O    0.953     8 H    0.110
     7   8 O    1.743 --     9 H    0.886     8 H    0.802
     8   1 H    0.914 --     7 O    0.802     6 O    0.110
     9   1 H    0.887 --     7 O    0.886
 ---------------------------------------------------------------------------

molecular dipole:
                 x           y           z       tot (Debye)
 q only:       15.484       9.950       0.228
   full:       15.571       9.842       0.251      46.825

 projected vibrational frequencies (cm⁻¹)
eigval :       -0.00    -0.00    -0.00     0.00     0.00     0.00
eigval :     -139.93    59.98   106.23   202.44   316.21   413.33
eigval :      560.64   895.69   946.35  1070.40  1129.61  1178.56
eigval :     1360.04  1427.71  1484.55  1544.00  2635.77  2891.01
eigval :     2920.78  2987.98  3607.62

   temp. (K)  partition function   enthalpy   heat capacity  entropy
                                   cal/mol     cal/K/mol   cal/K/mol   J/K/mol
 298.15  VIB   26.3                 1987.409     11.677     12.779
         ROT  0.754E+05              888.752      2.981     25.300
         INT  0.198E+07             2876.161     14.658     38.079
         TR   0.508E+27             1481.254      4.968     38.419
         TOT                        4357.4150    19.6260    76.4978   320.0667

       T/K    H(0)-H(T)+PV         H(T)/Eh          T*S/Eh         G(T)/Eh
   ------------------------------------------------------------------------
    298.15    0.694398E-02    0.701379E-01    0.363466E-01    0.337913E-01
   ------------------------------------------------------------------------

         :::::::::::::::::::::::::::::::::::::::::::::::::::::
         ::                  THERMODYNAMIC                  ::
         :::::::::::::::::::::::::::::::::::::::::::::::::::::
         :: total free energy         -17.072123723591 Eh   ::
         ::.................................................::
         :: total energy              -17.105915019002 Eh   ::
         :: zero point energy           0.063193877730 Eh   ::
         :: G(RRHO) w/o ZPVE           -0.029402582319 Eh   ::
         :: G(RRHO) contrib.            0.033791295411 Eh   ::
         :::::::::::::::::::::::::::::::::::::::::::::::::::::

           -------------------------------------------------
          | TOTAL ENERGY              -17.105915019002 Eh   |
          | TOTAL ENTHALPY            -17.035777158543 Eh   |
          | TOTAL FREE ENERGY         -17.072123723591 Eh   |
          | GRADIENT NORM               0.000509408986 Eh/α |
          | HOMO-LUMO GAP               7.029575378288 eV   |
           -------------------------------------------------

 * finished run on 2025/10/18 at 02:39:21.866
normal termination of xtb
