   * xtb version 6.7.1 (edcfbbe) compiled by 'albert@albert-system' on 2024-07-22

   ID    Z sym.   atoms
    1    6 C      1
    2    1 H      2, 4, 5, 8, 9
    3    8 O      3, 6, 7

          program call               : xtb tb_lite_results_shiftn0p2_gp380_b0_rot90_complex.xyz --ohess --chrg -1 --alpb water
      * Solvation model:               ALPB
        Solvent                        water
        Solvent mass                       1.8000E+01 g/mol
          :  Hamiltonian                  GFN2-xTB          :
 * total energy  :   -17.1008425 Eh     change       -0.1715428E-09 Eh
 * total energy  :   -17.1045234 Eh     change       -0.3680906E-02 Eh
 * total energy  :   -17.1050896 Eh     change       -0.5661469E-03 Eh
 * total energy  :   -17.1051407 Eh     change       -0.5108809E-04 Eh
 * total energy  :   -17.1051665 Eh     change       -0.2582797E-04 Eh
 * total energy  :   -17.1051747 Eh     change       -0.8226205E-05 Eh
 * total energy  :   -17.1051844 Eh     change       -0.9696221E-05 Eh
 * total energy  :   -17.1051948 Eh     change       -0.1033253E-04 Eh
 * total energy  :   -17.1052063 Eh     change       -0.1158093E-04 Eh
 * total energy  :   -17.1052182 Eh     change       -0.1187817E-04 Eh
 * total energy  :   -17.1057391 Eh     change       -0.2658078E-03 Eh
 * total energy  :   -17.1057668 Eh     change       -0.2772725E-04 Eh
 * total energy  :   -17.1058174 Eh     change       -0.5062647E-04 Eh
 * total energy  :   -17.1058371 Eh     change       -0.1966470E-04 Eh
 * total energy  :   -17.1058627 Eh     change       -0.2563596E-04 Eh
 * total energy  :   -17.1058545 Eh     change        0.8246634E-05 Eh
 * total energy  :   -17.1058708 Eh     change       -0.1631062E-04 Eh
 * total energy  :   -17.1058731 Eh     change       -0.2293171E-05 Eh
 * total energy  :   -17.1058763 Eh     change       -0.3205302E-05 Eh
   *** GEOMETRY OPTIMIZATION CONVERGED AFTER 41 ITERATIONS ***

 final structure:
================
9
 xtb: 6.7.1 (edcfbbe)
C           -6.97919317443454       -4.46943303640060        1.35110947644466
H           -7.38019277889211       -3.53006734786526        0.95454599093637
O           -8.00344519299068       -5.42567472391221        1.50538481015109
H           -6.20017296313231       -4.84285989306681        0.67819694327171
H           -6.59307768597172       -4.33457497420937        2.36033910630364
O           -8.59384486096324       -5.74339990211175        0.24207055845961
O           -6.79516308745926       -7.09326602990930       -1.10094724833486
H           -7.48098144062850       -6.55245162289212       -0.59871238567175
H           -7.09806421934099       -8.00263520105794       -1.01402853408912

          :  Hamiltonian                  GFN2-xTB          :
         :: gradient norm              0.000633256964 Eh/a0 ::
         :: HOMO-LUMO gap              7.024854390406 eV    ::
         :: SCC energy               -17.191042458033 Eh    ::
         :: -> dispersion             -0.003246510296 Eh    ::
         :: -> Gsolv                  -0.134281838988 Eh    ::
         :: repulsion energy           0.085166156202 Eh    ::

    * Orbital Energies and Occupations

         #    Occupation            Energy/Eh            Energy/eV
      -------------------------------------------------------------
         1        2.0000           -0.6771246             -18.4255
         2        2.0000           -0.6478085             -17.6278
         3        2.0000           -0.6174595             -16.8019
         4        2.0000           -0.5951712             -16.1954
         5        2.0000           -0.5339733             -14.5302
         6        2.0000           -0.5238069             -14.2535
         7        2.0000           -0.5218730             -14.2009
         8        2.0000           -0.5164458             -14.0532
         9        2.0000           -0.4821216             -13.1192
        10        2.0000           -0.4503658             -12.2551
        11        2.0000           -0.4313518             -11.7377
        12        2.0000           -0.4125370             -11.2257
        13        2.0000           -0.3585845              -9.7576
        14        2.0000           -0.3375646              -9.1856 (HOMO)
        15                         -0.0794060              -2.1607 (LUMO)
        16                          0.1044580               2.8424
        17                          0.1282715               3.4904
        18                          0.1498615               4.0779
        19                          0.2089868               5.6868
        20                          0.2287989               6.2259
        21                          0.2961446               8.0585
      -------------------------------------------------------------
                  HL-Gap            0.2581586 Eh            7.0249 eV

     #   Z          covCN         q      C6AA      α(0)
     1   6 C        3.624     0.068    19.869     6.424
     2   1 H        0.924     0.027     2.624     2.533
     3   8 O        1.775    -0.359    20.035     6.044
     4   1 H        0.924     0.034     2.528     2.487
     5   1 H        0.925     0.057     2.233     2.337
     6   8 O        0.928    -0.742    29.839     7.326
     7   8 O        1.602    -0.716    28.144     7.160
     8   1 H        0.799     0.294     0.740     1.352
     9   1 H        0.805     0.337     0.620     1.237

Wiberg/Mayer (AO) data.
largest (>0.10) Wiberg bond orders for each atom

     #   Z sym  total        # sym  WBO       # sym  WBO       # sym  WBO
 ---------------------------------------------------------------------------
     1   6 C    3.950 --     3 O    0.999     2 H    0.980     4 H    0.979
                             5 H    0.973
     2   1 H    0.999 --     1 C    0.980
     3   8 O    1.986 --     1 C    0.999     6 O    0.953
     4   1 H    0.999 --     1 C    0.979
     5   1 H    0.997 --     1 C    0.973
     6   8 O    1.163 --     3 O    0.953     8 H    0.110
     7   8 O    1.743 --     9 H    0.886     8 H    0.802
     8   1 H    0.913 --     7 O    0.802     6 O    0.110
     9   1 H    0.887 --     7 O    0.886
 ---------------------------------------------------------------------------

molecular dipole:
                 x           y           z       tot (Debye)
 q only:       15.616      11.064      -0.328
   full:       15.532      11.093      -0.206      48.516

 projected vibrational frequencies (cm⁻¹)
eigval :       -0.00    -0.00     0.00     0.00     0.00     0.00
eigval :       55.69    92.33   134.38   209.50   321.13   412.71
eigval :      565.80   920.50   948.16  1070.00  1130.30  1178.48
eigval :     1360.78  1428.46  1485.24  1542.57  2638.56  2888.45
eigval :     2920.48  2986.83  3614.13

   temp. (K)  partition function   enthalpy   heat capacity  entropy
                                   cal/mol     cal/K/mol   cal/K/mol   J/K/mol
 298.15  VIB   63.6                 2415.226     13.427     15.833
         ROT  0.755E+05              888.752      2.981     25.300
         INT  0.480E+07             3303.979     16.407     41.134
         TR   0.508E+27             1481.254      4.968     38.419
         TOT                        4785.2325    21.3755    79.5524   332.8472

       T/K    H(0)-H(T)+PV         H(T)/Eh          T*S/Eh         G(T)/Eh
   ------------------------------------------------------------------------
    298.15    0.762575E-02    0.711969E-01    0.377979E-01    0.333990E-01
   ------------------------------------------------------------------------

         :::::::::::::::::::::::::::::::::::::::::::::::::::::
         ::                  THERMODYNAMIC                  ::
         :::::::::::::::::::::::::::::::::::::::::::::::::::::
         :: total free energy         -17.072477346452 Eh   ::
         ::.................................................::
         :: total energy              -17.105876305040 Eh   ::
         :: zero point energy           0.063571115628 Eh   ::
         :: G(RRHO) w/o ZPVE           -0.030172157039 Eh   ::
         :: G(RRHO) contrib.            0.033398958588 Eh   ::
         :::::::::::::::::::::::::::::::::::::::::::::::::::::

           -------------------------------------------------
          | TOTAL ENERGY              -17.105876305040 Eh   |
          | TOTAL ENTHALPY            -17.034679436087 Eh   |
          | TOTAL FREE ENERGY         -17.072477346452 Eh   |
          | GRADIENT NORM               0.000633268006 Eh/α |
          | HOMO-LUMO GAP               7.024853504385 eV   |
           -------------------------------------------------

 * finished run on 2025/10/18 at 02:39:24.440
normal termination of xtb
