   * xtb version 6.7.1 (edcfbbe) compiled by 'albert@albert-system' on 2024-07-22

   ID    Z sym.   atoms
    1    6 C      1
    2    1 H      2, 4, 5, 8, 9
    3    8 O      3, 6, 7

          program call               : xtb tb_lite_results_shiftn0p2_gp400_b0_rot180_complex.xyz --ohess --chrg -1 --alpb water
      * Solvation model:               ALPB
        Solvent                        water
        Solvent mass                       1.8000E+01 g/mol
          :  Hamiltonian                  GFN2-xTB          :
 * total energy  :   -17.1013596 Eh     change       -0.2227551E-11 Eh
 * total energy  :   -17.1047848 Eh     change       -0.3425275E-02 Eh
 * total energy  :   -17.1055006 Eh     change       -0.7157533E-03 Eh
 * total energy  :   -17.1056963 Eh     change       -0.1956676E-03 Eh
 * total energy  :   -17.1057749 Eh     change       -0.7860731E-04 Eh
 * total energy  :   -17.1057904 Eh     change       -0.1554649E-04 Eh
 * total energy  :   -17.1058052 Eh     change       -0.1479622E-04 Eh
 * total energy  :   -17.1058125 Eh     change       -0.7309248E-05 Eh
 * total energy  :   -17.1058245 Eh     change       -0.1197866E-04 Eh
 * total energy  :   -17.1058323 Eh     change       -0.7801534E-05 Eh
 * total energy  :   -17.1058913 Eh     change       -0.7734570E-05 Eh
 * total energy  :   -17.1058935 Eh     change       -0.2223077E-05 Eh
 * total energy  :   -17.1058966 Eh     change       -0.3073079E-05 Eh
 * total energy  :   -17.1059024 Eh     change       -0.5827236E-05 Eh
 * total energy  :   -17.1058603 Eh     change        0.4210613E-04 Eh
 * total energy  :   -17.1059151 Eh     change       -0.5473993E-04 Eh
 * total energy  :   -17.1059205 Eh     change       -0.5415470E-05 Eh
 * total energy  :   -17.1059320 Eh     change       -0.1149279E-04 Eh
 * total energy  :   -17.1059360 Eh     change       -0.4021045E-05 Eh
   *** GEOMETRY OPTIMIZATION CONVERGED AFTER 25 ITERATIONS ***

 final structure:
================
9
 xtb: 6.7.1 (edcfbbe)
C           -7.11789780765534       -4.38245278343846        1.59456409924530
H           -7.72306342217927       -3.49250284022544        1.39121186604753
O           -7.74976227472172       -5.54111083378141        1.09782261054596
H           -6.12790656231630       -4.25665084616798        1.14273721987502
H           -7.03937328595171       -4.56531209374406        2.66495231700192
O           -7.94411158169945       -5.44798239020442       -0.31564102774235
O           -5.59163953237657       -5.36451959000286       -1.46076309438461
H           -6.49426558298378       -5.37627747898004       -1.01281056950398
H           -5.57861518142785       -6.16708236745243       -1.99199420405949

          :  Hamiltonian                  GFN2-xTB          :
         :: gradient norm              0.000328787236 Eh/a0 ::
         :: HOMO-LUMO gap              7.023272412993 eV    ::
         :: SCC energy               -17.191066840316 Eh    ::
         :: -> dispersion             -0.003253153137 Eh    ::
         :: -> Gsolv                  -0.134410241800 Eh    ::
         :: repulsion energy           0.085130840009 Eh    ::

    * Orbital Energies and Occupations

         #    Occupation            Energy/Eh            Energy/eV
      -------------------------------------------------------------
         1        2.0000           -0.6768961             -18.4193
         2        2.0000           -0.6479006             -17.6303
         3        2.0000           -0.6172672             -16.7967
         4        2.0000           -0.5951553             -16.1950
         5        2.0000           -0.5339973             -14.5308
         6        2.0000           -0.5239098             -14.2563
         7        2.0000           -0.5216800             -14.1956
         8        2.0000           -0.5161929             -14.0463
         9        2.0000           -0.4820985             -13.1186
        10        2.0000           -0.4502710             -12.2525
        11        2.0000           -0.4314147             -11.7394
        12        2.0000           -0.4126610             -11.2291
        13        2.0000           -0.3584637              -9.7543
        14        2.0000           -0.3373597              -9.1800 (HOMO)
        15                         -0.0792593              -2.1568 (LUMO)
        16                          0.1033206               2.8115
        17                          0.1281638               3.4875
        18                          0.1513026               4.1172
        19                          0.2095092               5.7010
        20                          0.2293811               6.2418
        21                          0.2961441               8.0585
      -------------------------------------------------------------
                  HL-Gap            0.2581004 Eh            7.0233 eV

     #   Z          covCN         q      C6AA      α(0)
     1   6 C        3.624     0.067    19.873     6.424
     2   1 H        0.924     0.028     2.612     2.527
     3   8 O        1.775    -0.359    20.046     6.046
     4   1 H        0.924     0.034     2.531     2.488
     5   1 H        0.925     0.057     2.234     2.337
     6   8 O        0.928    -0.742    29.820     7.323
     7   8 O        1.602    -0.716    28.150     7.161
     8   1 H        0.799     0.294     0.741     1.352
     9   1 H        0.805     0.337     0.620     1.237

Wiberg/Mayer (AO) data.
largest (>0.10) Wiberg bond orders for each atom

     #   Z sym  total        # sym  WBO       # sym  WBO       # sym  WBO
 ---------------------------------------------------------------------------
     1   6 C    3.950 --     3 O    0.999     2 H    0.980     4 H    0.978
                             5 H    0.973
     2   1 H    0.999 --     1 C    0.980
     3   8 O    1.986 --     1 C    0.999     6 O    0.953
     4   1 H    0.999 --     1 C    0.978
     5   1 H    0.997 --     1 C    0.973
     6   8 O    1.162 --     3 O    0.953     8 H    0.110
     7   8 O    1.743 --     9 H    0.886     8 H    0.801
     8   1 H    0.914 --     7 O    0.801     6 O    0.110
     9   1 H    0.887 --     7 O    0.886
 ---------------------------------------------------------------------------

molecular dipole:
                 x           y           z       tot (Debye)
 q only:       14.339      10.239       0.481
   full:       14.230      10.190       0.547      44.509

 projected vibrational frequencies (cm⁻¹)
eigval :       -0.00    -0.00     0.00     0.00     0.00     0.00
eigval :       62.11    87.02   114.02   201.37   315.50   413.00
eigval :      566.84   912.08   946.70  1070.39  1129.63  1178.71
eigval :     1360.63  1427.82  1484.92  1545.13  2635.47  2890.37
eigval :     2919.15  2988.78  3610.09

   temp. (K)  partition function   enthalpy   heat capacity  entropy
                                   cal/mol     cal/K/mol   cal/K/mol   J/K/mol
 298.15  VIB   70.6                 2449.501     13.540     16.271
         ROT  0.755E+05              888.752      2.981     25.302
         INT  0.533E+07             3338.253     16.521     41.573
         TR   0.508E+27             1481.254      4.968     38.419
         TOT                        4819.5068    21.4892    79.9919   334.6860

       T/K    H(0)-H(T)+PV         H(T)/Eh          T*S/Eh         G(T)/Eh
   ------------------------------------------------------------------------
    298.15    0.768037E-02    0.711495E-01    0.380067E-01    0.331428E-01
   ------------------------------------------------------------------------

         :::::::::::::::::::::::::::::::::::::::::::::::::::::
         ::                  THERMODYNAMIC                  ::
         :::::::::::::::::::::::::::::::::::::::::::::::::::::
         :: total free energy         -17.072793217934 Eh   ::
         ::.................................................::
         :: total energy              -17.105935999636 Eh   ::
         :: zero point energy           0.063469124866 Eh   ::
         :: G(RRHO) w/o ZPVE           -0.030326343164 Eh   ::
         :: G(RRHO) contrib.            0.033142781702 Eh   ::
         :::::::::::::::::::::::::::::::::::::::::::::::::::::

           -------------------------------------------------
          | TOTAL ENERGY              -17.105935999636 Eh   |
          | TOTAL ENTHALPY            -17.034786501769 Eh   |
          | TOTAL FREE ENERGY         -17.072793217934 Eh   |
          | GRADIENT NORM               0.000329101174 Eh/α |
          | HOMO-LUMO GAP               7.023269947939 eV   |
           -------------------------------------------------

 * finished run on 2025/10/18 at 02:39:19.982
normal termination of xtb
