   * xtb version 6.7.1 (edcfbbe) compiled by 'albert@albert-system' on 2024-07-22

   ID    Z sym.   atoms
    1    6 C      1
    2    1 H      2, 4, 5, 8, 9
    3    8 O      3, 6, 7

          program call               : xtb tb_lite_results_shiftn0p25_gp394_b0_rot180_complex.xyz --ohess --chrg -1 --alpb water
      * Solvation model:               ALPB
        Solvent                        water
        Solvent mass                       1.8000E+01 g/mol
          :  Hamiltonian                  GFN2-xTB          :
 * total energy  :   -17.1007628 Eh     change       -0.2284395E-11 Eh
 * total energy  :   -17.1050102 Eh     change       -0.4247359E-02 Eh
 * total energy  :   -17.1056960 Eh     change       -0.6858520E-03 Eh
 * total energy  :   -17.1057606 Eh     change       -0.6455388E-04 Eh
 * total energy  :   -17.1058041 Eh     change       -0.4348434E-04 Eh
 * total energy  :   -17.1058190 Eh     change       -0.1490976E-04 Eh
 * total energy  :   -17.1058297 Eh     change       -0.1076402E-04 Eh
 * total energy  :   -17.1058458 Eh     change       -0.1603338E-04 Eh
 * total energy  :   -17.1058552 Eh     change       -0.9440041E-05 Eh
 * total energy  :   -17.1058736 Eh     change       -0.1839105E-04 Eh
 * total energy  :   -17.1058897 Eh     change       -0.1608493E-04 Eh
 * total energy  :   -17.1059002 Eh     change       -0.1051064E-04 Eh
 * total energy  :   -17.1059050 Eh     change       -0.4765645E-05 Eh
 * total energy  :   -17.1059082 Eh     change       -0.3253833E-05 Eh
 * total energy  :   -17.1059098 Eh     change       -0.1544050E-05 Eh
   *** GEOMETRY OPTIMIZATION CONVERGED AFTER 15 ITERATIONS ***

 final structure:
================
9
 xtb: 6.7.1 (edcfbbe)
C           -7.14350064367323       -4.37891240691304        1.59241017776478
H           -8.00774830537382       -3.70570461069441        1.60016161269620
O           -7.48579590382469       -5.62262203106018        1.02186193526519
H           -6.32415453822444       -3.90874203210933        1.03739870481511
H           -6.83517217374232       -4.63201908068671        2.60548423317722
O           -7.92743981363604       -5.45774555908856       -0.32822631941528
O          -10.17315300976125       -4.11214434844692       -0.25148421341165
H           -9.29730660986636       -4.60880942573027       -0.28242326035357
H          -10.82712910582318       -4.76412119415647       -0.52322445443958

          :  Hamiltonian                  GFN2-xTB          :
         :: gradient norm              0.000611374231 Eh/a0 ::
         :: HOMO-LUMO gap              7.023324810735 eV    ::
         :: SCC energy               -17.190984777828 Eh    ::
         :: -> dispersion             -0.003254787010 Eh    ::
         :: -> Gsolv                  -0.134385102720 Eh    ::
         :: repulsion energy           0.085075012653 Eh    ::

    * Orbital Energies and Occupations

         #    Occupation            Energy/Eh            Energy/eV
      -------------------------------------------------------------
         1        2.0000           -0.6768677             -18.4185
         2        2.0000           -0.6479522             -17.6317
         3        2.0000           -0.6172583             -16.7965
         4        2.0000           -0.5950795             -16.1929
         5        2.0000           -0.5339779             -14.5303
         6        2.0000           -0.5237784             -14.2527
         7        2.0000           -0.5216499             -14.1948
         8        2.0000           -0.5162509             -14.0479
         9        2.0000           -0.4821720             -13.1206
        10        2.0000           -0.4502798             -12.2527
        11        2.0000           -0.4313901             -11.7387
        12        2.0000           -0.4127026             -11.2302
        13        2.0000           -0.3584692              -9.7544
        14        2.0000           -0.3374003              -9.1811 (HOMO)
        15                         -0.0792979              -2.1578 (LUMO)
        16                          0.1031780               2.8076
        17                          0.1275949               3.4720
        18                          0.1508073               4.1037
        19                          0.2091911               5.6924
        20                          0.2291895               6.2366
        21                          0.2962437               8.0612
      -------------------------------------------------------------
                  HL-Gap            0.2581024 Eh            7.0233 eV

     #   Z          covCN         q      C6AA      α(0)
     1   6 C        3.624     0.067    19.875     6.425
     2   1 H        0.924     0.034     2.525     2.485
     3   8 O        1.775    -0.359    20.045     6.046
     4   1 H        0.924     0.028     2.617     2.530
     5   1 H        0.925     0.057     2.232     2.336
     6   8 O        0.928    -0.742    29.833     7.325
     7   8 O        1.602    -0.716    28.141     7.159
     8   1 H        0.799     0.294     0.740     1.352
     9   1 H        0.805     0.337     0.620     1.237

Wiberg/Mayer (AO) data.
largest (>0.10) Wiberg bond orders for each atom

     #   Z sym  total        # sym  WBO       # sym  WBO       # sym  WBO
 ---------------------------------------------------------------------------
     1   6 C    3.950 --     3 O    0.998     4 H    0.980     2 H    0.979
                             5 H    0.973
     2   1 H    0.999 --     1 C    0.979
     3   8 O    1.986 --     1 C    0.998     6 O    0.953
     4   1 H    0.999 --     1 C    0.980
     5   1 H    0.997 --     1 C    0.973
     6   8 O    1.162 --     3 O    0.953     8 H    0.109
     7   8 O    1.743 --     9 H    0.886     8 H    0.802
     8   1 H    0.914 --     7 O    0.802     6 O    0.109
     9   1 H    0.887 --     7 O    0.886
 ---------------------------------------------------------------------------

molecular dipole:
                 x           y           z       tot (Debye)
 q only:       15.409       9.940       0.259
   full:       15.497       9.832       0.283      46.654

 projected vibrational frequencies (cm⁻¹)
eigval :       -0.00    -0.00     0.00     0.00     0.00     0.00
eigval :     -137.79    61.21   107.94   205.71   316.34   413.44
eigval :      558.17   896.59   946.15  1069.43  1129.71  1178.38
eigval :     1360.63  1427.69  1485.04  1543.20  2638.60  2887.59
eigval :     2917.39  2988.24  3607.65

   temp. (K)  partition function   enthalpy   heat capacity  entropy
                                   cal/mol     cal/K/mol   cal/K/mol   J/K/mol
 298.15  VIB   25.3                 1981.370     11.695     12.710
         ROT  0.754E+05              888.752      2.981     25.299
         INT  0.191E+07             2870.122     14.676     38.009
         TR   0.508E+27             1481.254      4.968     38.419
         TOT                        4351.3762    19.6444    76.4278   319.7741

       T/K    H(0)-H(T)+PV         H(T)/Eh          T*S/Eh         G(T)/Eh
   ------------------------------------------------------------------------
    298.15    0.693436E-02    0.701287E-01    0.363133E-01    0.338153E-01
   ------------------------------------------------------------------------

         :::::::::::::::::::::::::::::::::::::::::::::::::::::
         ::                  THERMODYNAMIC                  ::
         :::::::::::::::::::::::::::::::::::::::::::::::::::::
         :: total free energy         -17.072094418274 Eh   ::
         ::.................................................::
         :: total energy              -17.105909765652 Eh   ::
         :: zero point energy           0.063194320038 Eh   ::
         :: G(RRHO) w/o ZPVE           -0.029378972661 Eh   ::
         :: G(RRHO) contrib.            0.033815347378 Eh   ::
         :::::::::::::::::::::::::::::::::::::::::::::::::::::

           -------------------------------------------------
          | TOTAL ENERGY              -17.105909765652 Eh   |
          | TOTAL ENTHALPY            -17.035781086263 Eh   |
          | TOTAL FREE ENERGY         -17.072094418274 Eh   |
          | GRADIENT NORM               0.000611508904 Eh/α |
          | HOMO-LUMO GAP               7.023323409089 eV   |
           -------------------------------------------------

 * finished run on 2025/10/18 at 02:39:23.392
normal termination of xtb
