                         Program Version 5.0.4 -  RELEASE  -
|  1> !OPT PBE D3BJ def2-TZVP CPCM(water)
|  2>
|  3> *xyz -1 1
|  4> C     -2.096894   -2.891834    1.601737
|  5> C     -2.482361   -2.228194    0.496453
|  6> C     -3.737258   -2.577291   -0.162880
|  7> C     -4.500225   -3.567120    0.346863
|  8> C     -4.081409   -4.286098    1.545339
|  9> C     -2.921692   -3.956530    2.146525
| 10> O     -6.439089   -4.809980    0.152017
| 11> H     -2.585676   -4.474633    3.039280
| 12> H     -1.885616   -1.428752    0.068182
| 13> H     -4.004239   -2.012618   -1.051410
| 14> N     -5.754958   -3.897875   -0.333807
| 15> H     -4.708315   -5.079092    1.940384
| 16> O     -6.063900   -3.255862   -1.348619
| 17> N     -1.141931   -2.633790    2.112402
| 18> H     -0.274895   -2.401611    2.578516
| 19> *
| 20>
| 21>                          ****END OF INPUT****
 Total Charge           Charge          ....   -1
 Multiplicity           Mult            ....    1
 Number of Electrons    NEL             ....   72
Dispersion correction           -0.016158312
FINAL SINGLE POINT ENERGY      -491.170185753854
Dispersion correction            ... done
Dispersion correction           -0.016055919
FINAL SINGLE POINT ENERGY      -491.243631946842
Dispersion correction            ... done
Dispersion correction           -0.016031515
FINAL SINGLE POINT ENERGY      -491.254119515099
Dispersion correction            ... done
FINAL SINGLE POINT ENERGY      -491.255885229191
FINAL SINGLE POINT ENERGY      -491.255919468874
FINAL SINGLE POINT ENERGY      -491.255967839016
FINAL SINGLE POINT ENERGY      -491.256277882511
FINAL SINGLE POINT ENERGY      -491.256453215312
FINAL SINGLE POINT ENERGY      -491.256132473388
FINAL SINGLE POINT ENERGY      -491.267830614602
FINAL SINGLE POINT ENERGY      -491.285431975343
FINAL SINGLE POINT ENERGY      -491.300754145778
FINAL SINGLE POINT ENERGY      -491.305597159174
FINAL SINGLE POINT ENERGY      -491.305987533996
FINAL SINGLE POINT ENERGY      -491.306049196657
Dispersion correction            ... done
Dispersion correction           -0.016185658
FINAL SINGLE POINT ENERGY      -491.306080690430
Dispersion correction            ... done
Dispersion correction           -0.016185832
FINAL SINGLE POINT ENERGY      -491.306082404131
Dispersion correction            ... done
                    ***********************HURRAY********************

CARTESIAN COORDINATES (ANGSTROEM)
---------------------------------
  C     -2.025343   -2.807244    1.562966
  C     -2.533926   -2.158581    0.369275
  C     -3.719823   -2.522812   -0.213321
  C     -4.506416   -3.567219    0.342425
  C     -4.047924   -4.230371    1.510863
  C     -2.861752   -3.868290    2.095637
  O     -6.409849   -4.869702    0.255083
  H     -2.518268   -4.386423    2.995375
  H     -1.933676   -1.354497   -0.062793
  H     -4.078800   -2.018865   -1.110410
  N     -5.718299   -3.938116   -0.254407
  H     -4.656745   -5.030913    1.930882
  O     -6.111928   -3.338199   -1.298594
  N     -0.872993   -2.418065    2.087111
  H     -0.682716   -2.991985    2.920889

 Multiplicity           Mult            ....    1
 Number of Electrons    NEL             ....   72
 Basis Dimension        Dim             ....  340

ORBITAL ENERGIES
----------------

  NO   OCC          E(Eh)            E(eV)
   0   2.0000     -18.737945      -509.8854
   1   2.0000     -18.737933      -509.8851
   2   2.0000     -14.163016      -385.3952
   3   2.0000     -13.932952      -379.1349
   4   2.0000      -9.909338      -269.6468
   5   2.0000      -9.909033      -269.6385
   6   2.0000      -9.886123      -269.0151
   7   2.0000      -9.885360      -268.9943
   8   2.0000      -9.874626      -268.7022
   9   2.0000      -9.872809      -268.6528
  10   2.0000      -1.074892       -29.2493
  11   2.0000      -0.909062       -24.7368
  12   2.0000      -0.801341       -21.8056
  13   2.0000      -0.762352       -20.7447
  14   2.0000      -0.686133       -18.6706
  15   2.0000      -0.671685       -18.2775
  16   2.0000      -0.579184       -15.7604
  17   2.0000      -0.539657       -14.6848
  18   2.0000      -0.503519       -13.7014
  19   2.0000      -0.471961       -12.8427
  20   2.0000      -0.441985       -12.0270
  21   2.0000      -0.438886       -11.9427
  22   2.0000      -0.419674       -11.4199
  23   2.0000      -0.390865       -10.6360
  24   2.0000      -0.376823       -10.2539
  25   2.0000      -0.367187        -9.9917
  26   2.0000      -0.339072        -9.2266
  27   2.0000      -0.333165        -9.0659
  28   2.0000      -0.291042        -7.9197
  29   2.0000      -0.263242        -7.1632
  30   2.0000      -0.245695        -6.6857
  31   2.0000      -0.241969        -6.5843
  32   2.0000      -0.229316        -6.2400
  33   2.0000      -0.215731        -5.8703
  34   2.0000      -0.208158        -5.6643
  35   2.0000      -0.159819        -4.3489
  36   0.0000      -0.087620        -2.3843
  37   0.0000      -0.034029        -0.9260
  38   0.0000       0.011365         0.3093
  39   0.0000       0.042707         1.1621
  40   0.0000       0.056637         1.5412

MULLIKEN ATOMIC CHARGES
-----------------------
   0 C :    0.128699
   1 C :   -0.235794
   2 C :   -0.214058
   3 C :    0.136299
   4 C :   -0.214494
   5 C :   -0.260361
   6 O :   -0.437364
   7 H :    0.124138
   8 H :    0.087255
   9 H :    0.121603
  10 N :    0.346776
  11 H :    0.124654
  12 O :   -0.437410
  13 N :   -0.482151
  14 H :    0.212208
Sum of atomic charges:   -1.0000000

LOEWDIN ATOMIC CHARGES
----------------------
   0 C :   -0.333506
   1 C :   -0.147427
   2 C :   -0.141835
   3 C :   -0.239651
   4 C :   -0.141264
   5 C :   -0.152255
   6 O :   -0.174386
   7 H :    0.148146
   8 H :    0.144635
   9 H :    0.152137
  10 N :   -0.042094
  11 H :    0.152040
  12 O :   -0.173823
  13 N :   -0.197450
  14 H :    0.146734

  Mayer bond orders larger than 0.100000
B(  0-C ,  1-C ) :   1.1827 B(  0-C ,  5-C ) :   1.1465 B(  0-C , 13-N ) :   1.8000
B(  1-C ,  2-C ) :   1.6305 B(  1-C ,  8-H ) :   0.9844 B(  2-C ,  3-C ) :   1.2146
B(  2-C ,  9-H ) :   0.9554 B(  3-C ,  4-C ) :   1.2217 B(  3-C , 10-N ) :   1.1998
B(  4-C ,  5-C ) :   1.5371 B(  4-C , 11-H ) :   0.9382 B(  5-C ,  7-H ) :   0.9691
B(  6-O , 10-N ) :   1.4793 B(  6-O , 12-O ) :   0.1196 B( 10-N , 12-O ) :   1.4778
B( 13-N , 14-H ) :   0.9299

Dispersion correction           -0.016185443
FINAL SINGLE POINT ENERGY      -491.306083000970

DIPOLE MOMENT
-------------
                                X             Y             Z
Electronic contribution:     -5.06651      -1.45814      -2.60121
Nuclear contribution   :      5.50980       1.12788       3.36506
                        -----------------------------------------
Total Dipole Moment    :      0.44329      -0.33025       0.76384
                        -----------------------------------------
Magnitude (a.u.)       :      0.94288
Magnitude (Debye)      :      2.39662

Rotational constants in cm-1:     0.128996     0.028008     0.023011
Rotational constants in MHz :  3867.205992   839.647279   689.864475

                             ****ORCA TERMINATED NORMALLY****
TOTAL RUN TIME: 0 days 0 hours 26 minutes 10 seconds 330 msec
