   * xtb version 6.7.1 (edcfbbe) compiled by 'albert@albert-system' on 2024-07-22

   ID    Z sym.   atoms
    1    8 O      1
    2    6 C      2
    3    1 H      3-5

          program call               : xtb xyz.xyz --alpb water --charge -1 --ohess
      * Solvation model:               ALPB
        Solvent                        water
        Solvent mass                       1.8000E+01 g/mol
          :  Hamiltonian                  GFN2-xTB          :
 * total energy  :    -7.9915807 Eh     change       -0.1344702E-11 Eh
 * total energy  :    -7.9935733 Eh     change       -0.1992600E-02 Eh
 * total energy  :    -7.9936565 Eh     change       -0.8316566E-04 Eh
 * total energy  :    -7.9936730 Eh     change       -0.1649459E-04 Eh
 * total energy  :    -7.9936800 Eh     change       -0.7047514E-05 Eh
 * total energy  :    -7.9936805 Eh     change       -0.4439029E-06 Eh
   *** GEOMETRY OPTIMIZATION CONVERGED AFTER 6 ITERATIONS ***

 final structure:
================
5
 xtb: 6.7.1 (edcfbbe)
O           -1.21984508724732        4.34461540988390       -1.33607338266029
C           -1.48386518413697        3.37661318268510       -0.47829939522370
H           -2.34283861423903        2.71028618221372       -0.79070409169089
H           -0.61865097822131        2.66833891126147       -0.30709787358937
H           -1.76492313615537        3.74376231395581        0.55411874316426

          :  Hamiltonian                  GFN2-xTB          :
         :: gradient norm              0.000278815486 Eh/a0 ::
         :: HOMO-LUMO gap             11.691005154301 eV    ::
         :: SCC energy                -8.045814906514 Eh    ::
         :: -> dispersion             -0.001606312727 Eh    ::
         :: -> Gsolv                  -0.124652397735 Eh    ::
         :: repulsion energy           0.052134422652 Eh    ::

    * Orbital Energies and Occupations

         #    Occupation            Energy/Eh            Energy/eV
      -------------------------------------------------------------
         1        2.0000           -0.6054337             -16.4747
         2        2.0000           -0.5646470             -15.3648
         3        2.0000           -0.4824890             -13.1292
         4        2.0000           -0.4824305             -13.1276
         5        2.0000           -0.4419374             -12.0257
         6        2.0000           -0.3142318              -8.5507
         7        2.0000           -0.3142083              -8.5500 (HOMO)
         8                          0.1154283               3.1410 (LUMO)
         9                          0.1585302               4.3138
        10                          0.1587618               4.3201
        11                          0.3248429               8.8394
      -------------------------------------------------------------
                  HL-Gap            0.4296365 Eh           11.6910 eV

     #   Z          covCN         q      C6AA      α(0)
     1   8 O        0.854    -0.871    33.810     7.796
     2   6 C        3.606     0.197    17.953     6.123
     3   1 H        0.917    -0.109     5.885     3.794
     4   1 H        0.917    -0.109     5.887     3.795
     5   1 H        0.917    -0.109     5.885     3.794

Wiberg/Mayer (AO) data.
largest (>0.10) Wiberg bond orders for each atom

     #   Z sym  total        # sym  WBO       # sym  WBO       # sym  WBO
 ---------------------------------------------------------------------------
     1   8 O    1.307 --     2 C    1.163
     2   6 C    3.981 --     1 O    1.163     3 H    0.939     5 H    0.939
                             4 H    0.939
     3   1 H    0.988 --     2 C    0.939
     4   1 H    0.988 --     2 C    0.939
     5   1 H    0.988 --     2 C    0.939
 ---------------------------------------------------------------------------

molecular dipole:
                 x           y           z       tot (Debye)
 q only:        2.426      -7.766       2.132
   full:        2.356      -8.024       2.360      22.086

 projected vibrational frequencies (cm⁻¹)
eigval :       -0.00    -0.00    -0.00    -0.00     0.00     0.00
eigval :     1101.25  1175.57  1175.75  1464.00  1505.91  1506.39
eigval :     2320.88  2321.40  2556.51

   temp. (K)  partition function   enthalpy   heat capacity  entropy
                                   cal/mol     cal/K/mol   cal/K/mol   J/K/mol
 298.15  VIB   1.01                   48.557      0.961      0.191
         ROT   805.                  888.752      2.981     16.278
         INT   817.                  937.309      3.942     16.469
         TR   0.167E+27             1481.254      4.968     36.214
         TOT                        2418.5630     8.9103    52.6825   220.4238

       T/K    H(0)-H(T)+PV         H(T)/Eh          T*S/Eh         G(T)/Eh
   ------------------------------------------------------------------------
    298.15    0.385423E-02    0.383176E-01    0.250312E-01    0.132864E-01
   ------------------------------------------------------------------------

         :::::::::::::::::::::::::::::::::::::::::::::::::::::
         ::                  THERMODYNAMIC                  ::
         :::::::::::::::::::::::::::::::::::::::::::::::::::::
         :: total free energy          -7.980394076580 Eh   ::
         ::.................................................::
         :: total energy               -7.993680483860 Eh   ::
         :: zero point energy           0.034463358794 Eh   ::
         :: G(RRHO) w/o ZPVE           -0.021176951514 Eh   ::
         :: G(RRHO) contrib.            0.013286407280 Eh   ::
         :::::::::::::::::::::::::::::::::::::::::::::::::::::

           -------------------------------------------------
          | TOTAL ENERGY               -7.993680483860 Eh   |
          | TOTAL ENTHALPY             -7.955362899630 Eh   |
          | TOTAL FREE ENERGY          -7.980394076580 Eh   |
          | GRADIENT NORM               0.000278814225 Eh/α |
          | HOMO-LUMO GAP              11.691005098199 eV   |
           -------------------------------------------------

 * finished run on 2025/10/17 at 22:33:37.934
