                         Program Version 5.0.4 -  RELEASE  -
|  1> !OPT PBE D3BJ def2-TZVP CPCM(water)
|  2>
|  3> *xyz -1 1
|  4> C     -4.170472   -1.980883    1.997930
|  5> C     -3.832831   -2.436432    0.720901
|  6> H     -6.997464   -3.795245    2.498342
|  7> C     -5.313431   -2.461405    2.658416
|  8> H     -3.544345   -1.242457    2.496551
|  9> C     -4.634616   -3.381554    0.083236
| 10> H     -2.944535   -2.049766    0.231498
| 11> C     -5.772825   -3.870599    0.721928
| 12> H     -4.373254   -3.735981   -0.908536
| 13> C     -6.108275   -3.413501    1.998829
| 14> H     -6.403473   -4.606667    0.233629
| 15> C     -5.679544   -1.966380    4.045055
| 16> O     -4.909712   -1.103931    4.575806
| 17> O     -6.729752   -2.450104    4.575543
| 18> *
| 19>
| 20>                          ****END OF INPUT****
 Total Charge           Charge          ....   -1
 Multiplicity           Mult            ....    1
 Number of Electrons    NEL             ....   64
Dispersion correction           -0.014716102
FINAL SINGLE POINT ENERGY      -420.052739670658
Dispersion correction            ... done
Dispersion correction           -0.014697967
FINAL SINGLE POINT ENERGY      -420.052987240457
Dispersion correction            ... done
Dispersion correction           -0.014690576
FINAL SINGLE POINT ENERGY      -420.052754235630
Dispersion correction            ... done
FINAL SINGLE POINT ENERGY      -420.053037477926
Dispersion correction            ... done
Dispersion correction           -0.014695161
FINAL SINGLE POINT ENERGY      -420.053049029396
Dispersion correction            ... done
Dispersion correction           -0.014694542
FINAL SINGLE POINT ENERGY      -420.053051417411
Dispersion correction            ... done
                    ***********************HURRAY********************

CARTESIAN COORDINATES (ANGSTROEM)
---------------------------------
  C     -4.172182   -1.980183    1.997006
  C     -3.832282   -2.432666    0.719711
  H     -6.995103   -3.791794    2.510512
  C     -5.313376   -2.464031    2.653674
  H     -3.554637   -1.239940    2.508565
  C     -4.633010   -3.383164    0.077340
  H     -2.940578   -2.044449    0.222531
  C     -5.773191   -3.874870    0.721873
  H     -4.369647   -3.739278   -0.920679
  C     -6.107669   -3.416438    1.998590
  H     -6.402652   -4.617497    0.226565
  C     -5.682070   -1.962248    4.055206
  O     -4.897595   -1.119171    4.584707
  O     -6.740538   -2.429173    4.573527

 Multiplicity           Mult            ....    1
 Number of Electrons    NEL             ....   64
 Basis Dimension        Dim             ....  309

ORBITAL ENERGIES
----------------

  NO   OCC          E(Eh)            E(eV)
   0   2.0000     -18.678468      -508.2669
   1   2.0000     -18.678354      -508.2638
   2   2.0000      -9.947675      -270.6900
   3   2.0000      -9.883798      -268.9518
   4   2.0000      -9.882441      -268.9149
   5   2.0000      -9.882372      -268.9130
   6   2.0000      -9.881155      -268.8799
   7   2.0000      -9.878793      -268.8156
   8   2.0000      -9.878690      -268.8128
   9   2.0000      -0.918465       -24.9927
  10   2.0000      -0.834407       -22.7054
  11   2.0000      -0.770411       -20.9640
  12   2.0000      -0.671181       -18.2638
  13   2.0000      -0.667207       -18.1556
  14   2.0000      -0.546168       -14.8620
  15   2.0000      -0.534500       -14.5445
  16   2.0000      -0.475375       -12.9356
  17   2.0000      -0.430010       -11.7012
  18   2.0000      -0.395161       -10.7529
  19   2.0000      -0.382463       -10.4074
  20   2.0000      -0.369523       -10.0552
  21   2.0000      -0.363773        -9.8988
  22   2.0000      -0.352310        -9.5868
  23   2.0000      -0.338257        -9.2044
  24   2.0000      -0.315368        -8.5816
  25   2.0000      -0.303823        -8.2675
  26   2.0000      -0.287007        -7.8099
  27   2.0000      -0.228293        -6.2122
  28   2.0000      -0.222705        -6.0601
  29   2.0000      -0.204725        -5.5709
  30   2.0000      -0.192068        -5.2264
  31   2.0000      -0.176806        -4.8111
  32   0.0000      -0.054112        -1.4725
  33   0.0000      -0.037949        -1.0327
  34   0.0000       0.042152         1.1470
  35   0.0000       0.044280         1.2049
  36   0.0000       0.072473         1.9721

MULLIKEN ATOMIC CHARGES
-----------------------
   0 C :   -0.226223
   1 C :   -0.130165
   2 H :    0.110040
   3 C :    0.101064
   4 H :    0.110836
   5 C :   -0.140042
   6 H :    0.130452
   7 C :   -0.130530
   8 H :    0.133910
   9 C :   -0.226852
  10 H :    0.130625
  11 C :    0.170629
  12 O :   -0.516672
  13 O :   -0.517071
Sum of atomic charges:   -1.0000000

LOEWDIN ATOMIC CHARGES
----------------------
   0 C :   -0.124675
   1 C :   -0.157280
   2 H :    0.147268
   3 C :   -0.141749
   4 H :    0.147476
   5 C :   -0.154267
   6 H :    0.149412
   7 C :   -0.157322
   8 H :    0.149655
   9 C :   -0.124617
  10 H :    0.149413
  11 C :   -0.653735
  12 O :   -0.114538
  13 O :   -0.115043

  Mayer bond orders larger than 0.100000
B(  0-C ,  1-C ) :   1.4046 B(  0-C ,  3-C ) :   1.3611 B(  0-C ,  4-H ) :   0.9605
B(  1-C ,  5-C ) :   1.3834 B(  1-C ,  6-H ) :   0.9724 B(  2-H ,  9-C ) :   0.9612
B(  3-C ,  9-C ) :   1.3606 B(  3-C , 11-C ) :   0.8405 B(  3-C , 12-O ) :  -0.2168
B(  3-C , 13-O ) :  -0.2176 B(  5-C ,  7-C ) :   1.3840 B(  5-C ,  8-H ) :   0.9660
B(  7-C ,  9-C ) :   1.4047 B(  7-C , 10-H ) :   0.9722 B( 11-C , 12-O ) :   1.9008
B( 11-C , 13-O ) :   1.9019

Dispersion correction           -0.014694846
FINAL SINGLE POINT ENERGY      -420.053052215857

DIPOLE MOMENT
-------------
                                X             Y             Z
Electronic contribution:     -0.77082       1.04391       2.92264
Nuclear contribution   :      1.90059      -2.57751      -7.20971
                        -----------------------------------------
Total Dipole Moment    :      1.12977      -1.53359      -4.28708
                        -----------------------------------------
Magnitude (a.u.)       :      4.69120
Magnitude (Debye)      :     11.92407

Rotational constants in cm-1:     0.130150     0.041136     0.031258
Rotational constants in MHz :  3901.811652  1233.218916   937.095607

                             ****ORCA TERMINATED NORMALLY****
TOTAL RUN TIME: 0 days 0 hours 7 minutes 30 seconds 548 msec
