                         Program Version 5.0.4 -  RELEASE  -
|  1> !OPT PBE D3BJ def2-TZVP CPCM(water)
|  2>
|  3> *xyz -1 1
|  4> C     -2.078328   -2.841072    1.558084
|  5> C     -2.489481   -2.194607    0.451053
|  6> C     -3.742483   -2.564201   -0.182657
|  7> C     -4.478397   -3.558210    0.355009
|  8> C     -4.031073   -4.253353    1.549833
|  9> C     -2.868804   -3.923943    2.153372
| 10> O     -2.307418   -4.388732    3.175523
| 11> H     -1.140148   -2.565781    2.034259
| 12> H     -1.896604   -1.396978    0.021612
| 13> H     -4.031550   -2.015689   -1.071057
| 14> N     -5.737240   -3.910382   -0.304075
| 15> H     -4.640287   -5.049851    1.964043
| 16> O     -6.068386   -3.279951   -1.324221
| 17> O     -6.419490   -4.824077    0.185210
| 18> *
| 19>
| 20>                          ****END OF INPUT****
 Total Charge           Charge          ....   -1
 Multiplicity           Mult            ....    1
 Number of Electrons    NEL             ....   72
Dispersion correction           -0.015034621
FINAL SINGLE POINT ENERGY      -511.160380191593
Dispersion correction            ... done
Dispersion correction           -0.014995133
FINAL SINGLE POINT ENERGY      -511.174649776595
Dispersion correction            ... done
Dispersion correction           -0.014998114
FINAL SINGLE POINT ENERGY      -511.179063646635
Dispersion correction            ... done
FINAL SINGLE POINT ENERGY      -511.179644473387
FINAL SINGLE POINT ENERGY      -511.179115401812
FINAL SINGLE POINT ENERGY      -511.179768071979
Dispersion correction            ... done
Dispersion correction           -0.014992022
FINAL SINGLE POINT ENERGY      -511.179783227642
Dispersion correction            ... done
Dispersion correction           -0.014992576
FINAL SINGLE POINT ENERGY      -511.179790582277
Dispersion correction            ... done
                    ***********************HURRAY********************

CARTESIAN COORDINATES (ANGSTROEM)
---------------------------------
  C     -2.067153   -2.835863    1.561484
  C     -2.502470   -2.173604    0.416490
  C     -3.705191   -2.509752   -0.213740
  C     -4.448586   -3.547116    0.366867
  C     -4.047181   -4.233343    1.510264
  C     -2.814659   -3.907055    2.178276
  O     -2.416835   -4.518129    3.232755
  H     -1.121830   -2.548563    2.030432
  H     -1.891809   -1.370100   -0.002989
  H     -4.057042   -2.001312   -1.107408
  N     -5.718240   -3.927543   -0.267299
  H     -4.671077   -5.031427    1.911464
  O     -6.077290   -3.325085   -1.291896
  O     -6.390325   -4.837936    0.241288

 Multiplicity           Mult            ....    1
 Number of Electrons    NEL             ....   72
 Basis Dimension        Dim             ....  334

ORBITAL ENERGIES
----------------

  NO   OCC          E(Eh)            E(eV)
   0   2.0000     -18.774325      -510.8754
   1   2.0000     -18.773972      -510.8657
   2   2.0000     -18.670835      -508.0592
   3   2.0000     -14.198338      -386.3564
   4   2.0000      -9.926675      -270.1186
   5   2.0000      -9.917587      -269.8713
   6   2.0000      -9.881641      -268.8931
   7   2.0000      -9.876183      -268.7446
   8   2.0000      -9.870627      -268.5934
   9   2.0000      -9.869014      -268.5495
  10   2.0000      -1.120090       -30.4792
  11   2.0000      -0.954669       -25.9779
  12   2.0000      -0.873397       -23.7663
  13   2.0000      -0.774860       -21.0850
  14   2.0000      -0.703281       -19.1372
  15   2.0000      -0.644616       -17.5409
  16   2.0000      -0.609495       -16.5852
  17   2.0000      -0.528392       -14.3783
  18   2.0000      -0.510967       -13.9041
  19   2.0000      -0.474619       -12.9150
  20   2.0000      -0.471428       -12.8282
  21   2.0000      -0.456181       -12.4133
  22   2.0000      -0.426391       -11.6027
  23   2.0000      -0.399562       -10.8726
  24   2.0000      -0.373365       -10.1598
  25   2.0000      -0.346943        -9.4408
  26   2.0000      -0.337270        -9.1776
  27   2.0000      -0.312104        -8.4928
  28   2.0000      -0.301842        -8.2135
  29   2.0000      -0.278310        -7.5732
  30   2.0000      -0.273996        -7.4558
  31   2.0000      -0.264380        -7.1941
  32   2.0000      -0.240087        -6.5331
  33   2.0000      -0.230446        -6.2707
  34   2.0000      -0.172602        -4.6967
  35   2.0000      -0.159590        -4.3427
  36   0.0000      -0.116350        -3.1660
  37   0.0000      -0.024348        -0.6625
  38   0.0000       0.001870         0.0509
  39   0.0000       0.043538         1.1847
  40   0.0000       0.071859         1.9554

MULLIKEN ATOMIC CHARGES
-----------------------
   0 C :   -0.256715
   1 C :   -0.119061
   2 C :   -0.274498
   3 C :    0.141515
   4 C :   -0.338130
   5 C :    0.239412
   6 O :   -0.579263
   7 H :    0.093880
   8 H :    0.130623
   9 H :    0.136258
  10 N :    0.399339
  11 H :    0.103870
  12 O :   -0.340221
  13 O :   -0.337010
Sum of atomic charges:   -1.0000000

LOEWDIN ATOMIC CHARGES
----------------------
   0 C :   -0.149456
   1 C :   -0.173279
   2 C :   -0.173340
   3 C :   -0.203885
   4 C :   -0.136332
   5 C :   -0.428375
   6 O :   -0.153805
   7 H :    0.140546
   8 H :    0.150144
   9 H :    0.148649
  10 N :   -0.025816
  11 H :    0.144896
  12 O :   -0.070817
  13 O :   -0.069129

  Mayer bond orders larger than 0.100000
B(  0-C ,  1-C ) :   1.3855 B(  0-C ,  5-C ) :   1.1807 B(  0-C ,  7-H ) :   0.9754
B(  1-C ,  2-C ) :   1.3762 B(  1-C ,  8-H ) :   0.9587 B(  2-C ,  3-C ) :   1.3104
B(  2-C ,  9-H ) :   0.9518 B(  3-C ,  4-C ) :   1.2842 B(  3-C , 10-N ) :   1.0074
B(  4-C ,  5-C ) :   1.1698 B(  4-C , 11-H ) :   0.9651 B(  5-C ,  6-O ) :   1.7526
B( 10-N , 12-O ) :   1.5981 B( 10-N , 13-O ) :   1.6034 B( 12-O , 13-O ) :   0.2041

Dispersion correction           -0.014992330
FINAL SINGLE POINT ENERGY      -511.179792157711

DIPOLE MOMENT
-------------
                                X             Y             Z
Electronic contribution:     -4.55061      -1.79678      -1.77016
Nuclear contribution   :      4.29799       3.27358      -0.17420
                        -----------------------------------------
Total Dipole Moment    :     -0.25262       1.47680      -1.94436
                        -----------------------------------------
Magnitude (a.u.)       :      2.45464
Magnitude (Debye)      :      6.23921

Rotational constants in cm-1:     0.091839     0.033029     0.024293
Rotational constants in MHz :  2753.269020   990.190359   728.276920

                             ****ORCA TERMINATED NORMALLY****
TOTAL RUN TIME: 0 days 0 hours 11 minutes 56 seconds 37 msec
