   * xtb version 6.7.1 (edcfbbe) compiled by 'albert@albert-system' on 2024-07-22

   ID    Z sym.   atoms
    1    6 C      1, 2
    2    1 H      3-5, 7, 8
    3   16 S      6

          program call               : xtb xyz.xyz --alpb water --charge -1 --ohess
      * Solvation model:               ALPB
        Solvent                        water
        Solvent mass                       1.8000E+01 g/mol
          :  Hamiltonian                  GFN2-xTB          :
 * total energy  :   -10.3644548 Eh     change       -0.4357936E-09 Eh
 * total energy  :   -10.3648206 Eh     change       -0.3658429E-03 Eh
 * total energy  :   -10.3648467 Eh     change       -0.2608129E-04 Eh
 * total energy  :   -10.3648487 Eh     change       -0.1983729E-05 Eh
   *** GEOMETRY OPTIMIZATION CONVERGED AFTER 4 ITERATIONS ***

 final structure:
================
8
 xtb: 6.7.1 (edcfbbe)
C           -2.17426287243957        1.50128541217746        0.01363762015487
C           -0.72096543721544        1.73595144341490       -0.37319372325209
H           -2.21473971935390        0.99198333796370        0.97485540314584
H           -2.68086382503092        2.45954599646291        0.11388278608235
H           -2.67772302824789        0.89864978228203       -0.74098532151661
S            0.18089100546434        2.73731426769252        0.84569014095022
H           -0.19018472131081        0.77889364875355       -0.47107357115507
H           -0.65981640186580        2.25726411125293       -1.33846933440950

          :  Hamiltonian                  GFN2-xTB          :
         :: gradient norm              0.000512458295 Eh/a0 ::
         :: HOMO-LUMO gap              4.336402744072 eV    ::
         :: SCC energy               -10.469003227389 Eh    ::
         :: -> dispersion             -0.003963322323 Eh    ::
         :: -> Gsolv                  -0.098975233570 Eh    ::
         :: repulsion energy           0.104154528799 Eh    ::

    * Orbital Energies and Occupations

         #    Occupation            Energy/Eh            Energy/eV
      -------------------------------------------------------------
         1        2.0000           -0.6281848             -17.0938
         2        2.0000           -0.5993485             -16.3091
         3        2.0000           -0.5567381             -15.1496
         4        2.0000           -0.4983131             -13.5598
         5        2.0000           -0.4828629             -13.1394
         6        2.0000           -0.4570513             -12.4370
         7        2.0000           -0.4405077             -11.9868
         8        2.0000           -0.4004591             -10.8970
         9        2.0000           -0.2837793              -7.7220
        10        2.0000           -0.2819727              -7.6729 (HOMO)
        11                         -0.1226129              -3.3365 (LUMO)
        12                          0.0365512               0.9946
        13                          0.0480931               1.3087
        14                          0.0629711               1.7135
        15                          0.0655277               1.7831
        16                          0.1348685               3.6700
        17                          0.1615028               4.3947
        18                          0.1705779               4.6417
        19                          0.2002262               5.4484
        20                          0.2465492               6.7089
        21                          0.2878744               7.8335
        22                          0.3586212               9.7586
      -------------------------------------------------------------
                  HL-Gap            0.1593599 Eh            4.3364 eV

     #   Z          covCN         q      C6AA      α(0)
     1   6 C        3.776    -0.079    22.027     6.687
     2   6 C        3.791     0.066    19.487     6.287
     3   1 H        0.925     0.024     2.668     2.554
     4   1 H        0.925     0.024     2.668     2.554
     5   1 H        0.925     0.022     2.707     2.573
     6  16 S        0.996    -0.984   187.461    23.157
     7   1 H        0.924    -0.037     3.784     3.042
     8   1 H        0.924    -0.037     3.785     3.042

Wiberg/Mayer (AO) data.
largest (>0.10) Wiberg bond orders for each atom

     #   Z sym  total        # sym  WBO       # sym  WBO       # sym  WBO
 ---------------------------------------------------------------------------
     1   6 C    3.999 --     2 C    1.019     3 H    0.990     4 H    0.990
                             5 H    0.985
     2   6 C    3.991 --     1 C    1.019     6 S    1.014     7 H    0.980
                             8 H    0.980
     3   1 H    0.999 --     1 C    0.990
     4   1 H    0.999 --     1 C    0.990
     5   1 H    1.000 --     1 C    0.985
     6  16 S    1.065 --     2 C    1.014
     7   1 H    0.999 --     2 C    0.980
     8   1 H    0.999 --     2 C    0.980
 ---------------------------------------------------------------------------

molecular dipole:
                 x           y           z       tot (Debye)
 q only:       -0.380      -5.113      -1.476
   full:       -0.601      -5.401      -1.847      14.589

 projected vibrational frequencies (cm⁻¹)
eigval :       -0.00    -0.00     0.00     0.00     0.00     0.00
eigval :      211.06   301.04   684.99   786.87  1016.01  1023.12
eigval :     1059.11  1241.46  1261.13  1385.07  1480.88  1481.25
eigval :     1504.60  2822.13  2865.11  2983.84  3011.41  3021.36

   temp. (K)  partition function   enthalpy   heat capacity  entropy
                                   cal/mol     cal/K/mol   cal/K/mol   J/K/mol
 298.15  VIB   2.23                  823.225      6.747      4.359
         ROT  0.293E+05              888.752      2.981     23.422
         INT  0.655E+05             1711.977      9.728     27.781
         TR   0.462E+27             1481.254      4.968     38.233
         TOT                        3193.2310    14.6962    66.0143   276.2039

       T/K    H(0)-H(T)+PV         H(T)/Eh          T*S/Eh         G(T)/Eh
   ------------------------------------------------------------------------
    298.15    0.508874E-02    0.691973E-01    0.313655E-01    0.378318E-01
   ------------------------------------------------------------------------

         :::::::::::::::::::::::::::::::::::::::::::::::::::::
         ::                  THERMODYNAMIC                  ::
         :::::::::::::::::::::::::::::::::::::::::::::::::::::
         :: total free energy         -10.327016899033 Eh   ::
         ::.................................................::
         :: total energy              -10.364848700171 Eh   ::
         :: zero point energy           0.064108592189 Eh   ::
         :: G(RRHO) w/o ZPVE           -0.026276791052 Eh   ::
         :: G(RRHO) contrib.            0.037831801137 Eh   ::
         :::::::::::::::::::::::::::::::::::::::::::::::::::::

           -------------------------------------------------
          | TOTAL ENERGY              -10.364848700171 Eh   |
          | TOTAL ENTHALPY            -10.295651370485 Eh   |
          | TOTAL FREE ENERGY         -10.327016899033 Eh   |
          | GRADIENT NORM               0.000512484061 Eh/α |
          | HOMO-LUMO GAP               4.336402380290 eV   |
           -------------------------------------------------

 * finished run on 2025/10/18 at 18:25:48.093
