   * xtb version 6.7.1 (edcfbbe) compiled by 'albert@albert-system' on 2024-07-22

   ID    Z sym.   atoms
    1    6 C      1, 2, 5, 7, 9, 11, 13, 14, 17, 19, 21, 23
    2    7 N      3
    3    1 H      4, 6, 8, 10, 12, 15, 16, 18, 20, 22, 25, 26
    4    8 O      24

          program call               : xtb tb_lite_results_shiftn0p2_gp151_b0_rot0_complex.xyz --ohess --chrg -1 --alpb water
      * Solvation model:               ALPB
        Solvent                        water
        Solvent mass                       1.8000E+01 g/mol
          :  Hamiltonian                  GFN2-xTB          :
 * total energy  :   -39.0543841 Eh     change       -0.9454055E-09 Eh
 * total energy  :   -39.0593071 Eh     change       -0.4923004E-02 Eh
 * total energy  :   -39.0602463 Eh     change       -0.9391719E-03 Eh
 * total energy  :   -39.0606911 Eh     change       -0.4448047E-03 Eh
 * total energy  :   -39.0612106 Eh     change       -0.5195122E-03 Eh
 * total energy  :   -39.0617755 Eh     change       -0.5649671E-03 Eh
 * total energy  :   -39.0624027 Eh     change       -0.6271260E-03 Eh
 * total energy  :   -39.0629634 Eh     change       -0.5607046E-03 Eh
 * total energy  :   -39.0633591 Eh     change       -0.3957057E-03 Eh
 * total energy  :   -39.0635714 Eh     change       -0.2123108E-03 Eh
 * total energy  :   -39.0636755 Eh     change       -0.1041269E-03 Eh
 * total energy  :   -39.0637105 Eh     change       -0.3498866E-04 Eh
 * total energy  :   -39.0637167 Eh     change       -0.6244801E-05 Eh
 * total energy  :   -39.0637275 Eh     change       -0.1075458E-04 Eh
 * total energy  :   -39.0637318 Eh     change       -0.4257376E-05 Eh
   *** GEOMETRY OPTIMIZATION CONVERGED AFTER 15 ITERATIONS ***

 final structure:
================
26
 xtb: 6.7.1 (edcfbbe)
C           -7.42268229272136       -3.55195553289475       -3.17048687785828
C           -8.20429139856092       -3.43459815653845       -4.31215668917175
N           -5.83182426816337       -0.28580715907313       -2.94893612370912
H           -6.04803525955944       -2.60070734646080       -1.83756139388384
C           -8.18749904405146       -2.23588509856026       -5.00950707633981
H           -8.80299716656906       -4.26444930841466       -4.65903699690751
C           -7.43508611997178       -1.17080943382452       -4.57051817741346
H           -8.76983754206869       -2.13299991783235       -5.91810752781906
C           -6.65648120564901       -1.25424311489040       -3.39233273865234
H           -7.40945903961822       -0.25239562962080       -5.14676787902118
C           -6.66511403686344       -2.49735891606365       -2.71987517079794
H           -7.40942488921596       -4.48708710608611       -2.62380191857492
C           -5.99732856484302        1.03104672102134       -3.20260492638694
C           -7.24943594171653        1.67250740453124       -3.33446105290206
H           -4.06525554276885        3.82962711171808       -3.39498407740465
H           -3.88964944327174        1.39446476518796       -3.09058714324612
C           -7.34088907165874        3.03641098757992       -3.49524661961814
H           -8.14917398775704        1.07023875403621       -3.28121384871717
C           -6.20314704510602        3.82882008704054       -3.53175481182469
H           -8.31871342474678        3.49363357086761       -3.59005853802989
C           -4.96262883906166        3.22424844830678       -3.37951816576151
H           -6.28251270794087        4.89769577845629       -3.66734316168697
C           -4.85688391657327        1.86348537791857       -3.21267427694795
O           -4.00000191921187       -0.87273301144610       -1.08904279371864
H           -4.65300307611263       -0.68042837483795       -1.82659190378431
H           -4.29486784890673       -0.33366273957669       -0.34956902086261

          :  Hamiltonian                  GFN2-xTB          :
         :: gradient norm              0.000820400910 Eh/a0 ::
         :: HOMO-LUMO gap              2.873264322224 eV    ::
         :: SCC energy               -39.716739147463 Eh    ::
         :: -> dispersion             -0.026440074436 Eh    ::
         :: -> Gsolv                  -0.078318355352 Eh    ::
         :: repulsion energy           0.653007386660 Eh    ::

    * Orbital Energies and Occupations

         #    Occupation            Energy/Eh            Energy/eV
      -------------------------------------------------------------
         1        2.0000           -0.6428342             -17.4924
       ...           ...                  ...                  ...
        24        2.0000           -0.4445105             -12.0957
        25        2.0000           -0.4397384             -11.9659
        26        2.0000           -0.4172406             -11.3537
        27        2.0000           -0.4081205             -11.1055
        28        2.0000           -0.4069004             -11.0723
        29        2.0000           -0.4045509             -11.0084
        30        2.0000           -0.4020734             -10.9410
        31        2.0000           -0.3870455             -10.5320
        32        2.0000           -0.3765157             -10.2455
        33        2.0000           -0.3761563             -10.2357
        34        2.0000           -0.3735733             -10.1654
        35        2.0000           -0.3222638              -8.7692
        36        2.0000           -0.2983943              -8.1197 (HOMO)
        37                         -0.1928038              -5.2465 (LUMO)
        38                         -0.1920657              -5.2264
        39                         -0.1898048              -5.1649
        40                         -0.1563256              -4.2538
        41                         -0.0649609              -1.7677
        42                         -0.0450207              -1.2251
        43                          0.1082570               2.9458
        44                          0.1323780               3.6022
        45                          0.1420554               3.8655
        46                          0.1519810               4.1356
        47                          0.1587605               4.3201
       ...                                ...                  ...
        68                          0.7213289              19.6284
      -------------------------------------------------------------
                  HL-Gap            0.1055905 Eh            2.8733 eV

     #   Z          covCN         q      C6AA      α(0)
     1   6 C        2.916    -0.046    29.135     8.851
     2   6 C        2.917    -0.072    29.805     8.952
     3   7 N        1.852    -0.415    31.787     8.356
     4   1 H        0.925     0.005     2.965     2.693
     5   6 C        2.916    -0.046    29.154     8.854
     6   1 H        0.926    -0.001     3.067     2.738
     7   6 C        2.920    -0.076    29.907     8.968
     8   1 H        0.925    -0.005     3.154     2.777
     9   6 C        2.911     0.078    26.261     8.403
    10   1 H        0.925    -0.023     3.490     2.921
    11   6 C        2.926    -0.077    29.934     8.972
    12   1 H        0.925     0.002     3.017     2.716
    13   6 C        2.912     0.078    26.254     8.402
    14   6 C        2.920    -0.074    29.847     8.959
    15   1 H        0.925     0.005     2.967     2.694
    16   1 H        0.925     0.004     2.992     2.705
    17   6 C        2.916    -0.046    29.143     8.852
    18   1 H        0.925    -0.020     3.430     2.896
    19   6 C        2.918    -0.070    29.753     8.945
    20   1 H        0.925    -0.003     3.103     2.755
    21   6 C        2.916    -0.045    29.128     8.850
    22   1 H        0.926     0.002     3.016     2.716
    23   6 C        2.927    -0.075    29.872     8.963
    24   8 O        1.604    -0.700    27.722     7.106
    25   1 H        0.807     0.295     0.735     1.346
    26   1 H        0.805     0.325     0.650     1.266

Wiberg/Mayer (AO) data.
largest (>0.10) Wiberg bond orders for each atom

     #   Z sym  total        # sym  WBO       # sym  WBO       # sym  WBO
 ---------------------------------------------------------------------------
     1   6 C    3.990 --    11 C    1.498     2 C    1.399    12 H    0.971
     2   6 C    3.969 --     5 C    1.407     1 C    1.399     6 H    0.973
     3   7 N    3.085 --     9 C    1.282    13 C    1.263
     4   1 H    1.000 --    11 C    0.970
     5   6 C    3.989 --     7 C    1.488     2 C    1.407     8 H    0.971
     6   1 H    1.000 --     2 C    0.973
     7   6 C    3.983 --     5 C    1.488     9 C    1.274    10 H    0.969
     8   1 H    1.000 --     5 C    0.971
     9   6 C    3.980 --     3 N    1.282    11 C    1.278     7 C    1.274
    10   1 H    0.999 --     7 C    0.969
    11   6 C    3.978 --     1 C    1.498     9 C    1.278     4 H    0.970
    12   1 H    0.999 --     1 C    0.971
    13   6 C    3.981 --    23 C    1.285    14 C    1.282     3 N    1.263
    14   6 C    3.984 --    17 C    1.485    13 C    1.282    18 H    0.969
    15   1 H    0.999 --    21 C    0.971
    16   1 H    1.000 --    23 C    0.971
    17   6 C    3.989 --    14 C    1.485    19 C    1.408    20 H    0.971
    18   1 H    1.000 --    14 C    0.969
    19   6 C    3.969 --    17 C    1.408    21 C    1.401    22 H    0.973
    20   1 H    1.000 --    17 C    0.971
    21   6 C    3.990 --    23 C    1.494    19 C    1.401    15 H    0.971
    22   1 H    1.000 --    19 C    0.973
    23   6 C    3.978 --    21 C    1.494    13 C    1.285    16 H    0.971
    24   8 O    1.753 --    26 H    0.893    25 H    0.804
    25   1 H    0.913 --    24 O    0.804
    26   1 H    0.894 --    24 O    0.893
 ---------------------------------------------------------------------------

molecular dipole:
                 x           y           z       tot (Debye)
 q only:       11.463       0.725       6.220
   full:       11.039       0.934       6.028      32.058

 projected vibrational frequencies (cm⁻¹)
eigval :       -0.00    -0.00     0.00     0.00     0.00     0.00
eigval :      -28.37    58.37    62.15    66.60    83.07   112.54
eigval :      192.88   206.32   220.54   311.77   353.40   375.34
eigval :      384.05   461.68   475.35   494.05   535.12   575.00
eigval :      585.97   616.71   649.47   659.51   737.94   743.32
eigval :      771.58   815.01   833.08   845.50   852.82   864.94
eigval :      892.26   909.54   911.38   912.33   923.13   969.47
eigval :      978.24  1079.22  1081.67  1113.84  1122.43  1176.36
eigval :     1177.11  1195.12  1200.30  1264.92  1274.38  1293.62
eigval :     1329.52  1337.36  1391.25  1440.62  1450.01  1479.71
eigval :     1492.20  1515.35  1543.50  1546.26  1591.30  1615.84
eigval :     2654.44  3004.36  3011.11  3020.37  3023.13  3027.53
eigval :     3029.23  3051.16  3053.07  3064.77  3066.74  3625.48

   temp. (K)  partition function   enthalpy   heat capacity  entropy
                                   cal/mol     cal/K/mol   cal/K/mol   J/K/mol
 298.15  VIB  0.960E+04             6212.513     42.435     38.007
         ROT  0.213E+07              888.752      2.981     31.935
         INT  0.204E+11             7101.265     45.416     69.942
         TR   0.246E+28             1481.254      4.968     41.553
         TOT                        8582.5193    50.3838   111.4945   466.4928

       T/K    H(0)-H(T)+PV         H(T)/Eh          T*S/Eh         G(T)/Eh
   ------------------------------------------------------------------------
    298.15    0.136771E-01    0.213663E+00    0.529746E-01    0.160688E+00
   ------------------------------------------------------------------------

         :::::::::::::::::::::::::::::::::::::::::::::::::::::
         ::                  THERMODYNAMIC                  ::
         :::::::::::::::::::::::::::::::::::::::::::::::::::::
         :: total free energy         -38.903043322402 Eh   ::
         ::.................................................::
         :: total energy              -39.063731763730 Eh   ::
         :: zero point energy           0.199985942312 Eh   ::
         :: G(RRHO) w/o ZPVE           -0.039297500984 Eh   ::
         :: G(RRHO) contrib.            0.160688441328 Eh   ::
         :::::::::::::::::::::::::::::::::::::::::::::::::::::

           -------------------------------------------------
          | TOTAL ENERGY              -39.063731763730 Eh   |
          | TOTAL ENTHALPY            -38.850068706347 Eh   |
          | TOTAL FREE ENERGY         -38.903043322402 Eh   |
          | GRADIENT NORM               0.000820315810 Eh/α |
          | HOMO-LUMO GAP               2.873263351642 eV   |
           -------------------------------------------------

 * finished run on 2025/10/17 at 22:00:25.612
normal termination of xtb
