   * xtb version 6.7.1 (edcfbbe) compiled by 'albert@albert-system' on 2024-07-22

   ID    Z sym.   atoms
    1    6 C      1, 2, 5, 7, 9, 11, 13, 14, 17, 19, 21, 23
    2    7 N      3
    3    1 H      4, 6, 8, 10, 12, 15, 16, 18, 20, 22, 25, 26
    4    8 O      24

          program call               : xtb tb_lite_results_original_gp151_b0_rot0_complex.xyz --ohess --chrg -1 --alpb water
      * Solvation model:               ALPB
        Solvent                        water
        Solvent mass                       1.8000E+01 g/mol
          :  Hamiltonian                  GFN2-xTB          :
 * total energy  :   -39.0547390 Eh     change       -0.1240721E-08 Eh
 * total energy  :   -39.0588551 Eh     change       -0.4116063E-02 Eh
 * total energy  :   -39.0600242 Eh     change       -0.1169090E-02 Eh
 * total energy  :   -39.0606972 Eh     change       -0.6729970E-03 Eh
 * total energy  :   -39.0613370 Eh     change       -0.6398464E-03 Eh
 * total energy  :   -39.0617794 Eh     change       -0.4423800E-03 Eh
 * total energy  :   -39.0621702 Eh     change       -0.3907517E-03 Eh
 * total energy  :   -39.0625747 Eh     change       -0.4045699E-03 Eh
 * total energy  :   -39.0629499 Eh     change       -0.3751538E-03 Eh
 * total energy  :   -39.0633484 Eh     change       -0.3985345E-03 Eh
 * total energy  :   -39.0635880 Eh     change       -0.2395541E-03 Eh
 * total energy  :   -39.0636828 Eh     change       -0.9481691E-04 Eh
 * total energy  :   -39.0637048 Eh     change       -0.2201395E-04 Eh
 * total energy  :   -39.0637162 Eh     change       -0.1136126E-04 Eh
 * total energy  :   -39.0637220 Eh     change       -0.5865384E-05 Eh
 * total energy  :   -39.0637085 Eh     change        0.1350711E-04 Eh
 * total energy  :   -39.0637240 Eh     change       -0.1547068E-04 Eh
 * total energy  :   -39.0637273 Eh     change       -0.3314153E-05 Eh
   *** GEOMETRY OPTIMIZATION CONVERGED AFTER 18 ITERATIONS ***

 final structure:
================
26
 xtb: 6.7.1 (edcfbbe)
C           -7.40727680555677       -3.55714981053498       -3.15273266420509
C           -8.19023232319944       -3.44127074323506       -4.29394348343344
N           -5.81330289394131       -0.29178286630918       -2.93974415137305
H           -6.03055819787987       -2.60431811678617       -1.82343856672123
C           -8.17508785232125       -2.24289529764462       -4.99262401416050
H           -8.78916823984570       -4.27167533401147       -4.63929659019013
C           -7.42193370127377       -1.17736403713176       -4.55613986181832
H           -8.75993789199440       -2.14089549778334       -5.89974989741854
C           -6.64049804593423       -1.25969513196391       -3.37946900689996
H           -7.39799054023526       -0.25923221015426       -5.13300152350362
C           -6.64880078784962       -2.50185833755554       -2.70490969928478
H           -7.39280056610017       -4.49146558387502       -2.60503899056428
C           -5.97916604405351        1.02522472181673       -3.19212122322743
C           -7.23130010668528        1.66774588851394       -3.31892582921398
H           -4.04617941531709        3.82332235772760       -3.38380467424708
H           -3.87083375567216        1.38737462859324       -3.08784641802697
C           -7.32250114453019        3.03214598829318       -3.47537371026879
H           -8.13134002923437        1.06576131585290       -3.26490131051990
C           -6.18463030893887        3.82422636922704       -3.51231783849622
H           -8.30025381868190        3.49028398750302       -3.56588350977037
C           -4.94415579405173        3.21853958471023       -3.36621730829152
H           -6.26397633751353        4.89364709479332       -3.64368133053423
C           -4.83841558886914        1.85712728548076       -3.20438146711872
O           -3.98893462425928       -0.87335364635965       -1.06607578238014
H           -4.63606243258795       -0.68415050970721       -1.80851289338135
H           -4.28663371713222       -0.33080831402588       -0.33035453696160

          :  Hamiltonian                  GFN2-xTB          :
         :: gradient norm              0.000762342031 Eh/a0 ::
         :: HOMO-LUMO gap              2.872951745697 eV    ::
         :: SCC energy               -39.716640823511 Eh    ::
         :: -> dispersion             -0.026435143377 Eh    ::
         :: -> Gsolv                  -0.078307606737 Eh    ::
         :: repulsion energy           0.652913508628 Eh    ::

    * Orbital Energies and Occupations

         #    Occupation            Energy/Eh            Energy/eV
      -------------------------------------------------------------
         1        2.0000           -0.6430223             -17.4975
       ...           ...                  ...                  ...
        24        2.0000           -0.4444711             -12.0947
        25        2.0000           -0.4397000             -11.9648
        26        2.0000           -0.4172136             -11.3530
        27        2.0000           -0.4082502             -11.1091
        28        2.0000           -0.4068887             -11.0720
        29        2.0000           -0.4045473             -11.0083
        30        2.0000           -0.4021053             -10.9418
        31        2.0000           -0.3869697             -10.5300
        32        2.0000           -0.3764882             -10.2448
        33        2.0000           -0.3761241             -10.2349
        34        2.0000           -0.3735585             -10.1650
        35        2.0000           -0.3222132              -8.7679
        36        2.0000           -0.2983521              -8.1186 (HOMO)
        37                         -0.1927731              -5.2456 (LUMO)
        38                         -0.1920191              -5.2251
        39                         -0.1898032              -5.1648
        40                         -0.1563385              -4.2542
        41                         -0.0649395              -1.7671
        42                         -0.0450842              -1.2268
        43                          0.1083209               2.9476
        44                          0.1323380               3.6011
        45                          0.1420574               3.8656
        46                          0.1518004               4.1307
        47                          0.1587296               4.3193
       ...                                ...                  ...
        68                          0.7211587              19.6237
      -------------------------------------------------------------
                  HL-Gap            0.1055790 Eh            2.8730 eV

     #   Z          covCN         q      C6AA      α(0)
     1   6 C        2.916    -0.046    29.137     8.852
     2   6 C        2.917    -0.072    29.806     8.953
     3   7 N        1.852    -0.415    31.793     8.357
     4   1 H        0.925     0.005     2.964     2.692
     5   6 C        2.916    -0.047    29.155     8.854
     6   1 H        0.926    -0.001     3.068     2.739
     7   6 C        2.920    -0.076    29.907     8.968
     8   1 H        0.925    -0.005     3.154     2.777
     9   6 C        2.911     0.078    26.262     8.403
    10   1 H        0.925    -0.023     3.492     2.922
    11   6 C        2.926    -0.077    29.935     8.973
    12   1 H        0.925     0.002     3.016     2.716
    13   6 C        2.911     0.078    26.254     8.402
    14   6 C        2.920    -0.074    29.848     8.959
    15   1 H        0.925     0.005     2.969     2.695
    16   1 H        0.925     0.004     2.994     2.706
    17   6 C        2.916    -0.046    29.143     8.852
    18   1 H        0.925    -0.020     3.433     2.898
    19   6 C        2.918    -0.070    29.754     8.945
    20   1 H        0.925    -0.003     3.104     2.755
    21   6 C        2.916    -0.045    29.127     8.850
    22   1 H        0.926     0.002     3.017     2.716
    23   6 C        2.927    -0.075    29.872     8.963
    24   8 O        1.604    -0.700    27.705     7.104
    25   1 H        0.806     0.296     0.734     1.346
    26   1 H        0.805     0.326     0.649     1.265

Wiberg/Mayer (AO) data.
largest (>0.10) Wiberg bond orders for each atom

     #   Z sym  total        # sym  WBO       # sym  WBO       # sym  WBO
 ---------------------------------------------------------------------------
     1   6 C    3.990 --    11 C    1.498     2 C    1.399    12 H    0.971
     2   6 C    3.969 --     5 C    1.407     1 C    1.399     6 H    0.973
     3   7 N    3.084 --     9 C    1.282    13 C    1.263
     4   1 H    1.000 --    11 C    0.970
     5   6 C    3.989 --     7 C    1.488     2 C    1.407     8 H    0.971
     6   1 H    1.000 --     2 C    0.973
     7   6 C    3.983 --     5 C    1.488     9 C    1.274    10 H    0.969
     8   1 H    1.000 --     5 C    0.971
     9   6 C    3.980 --     3 N    1.282    11 C    1.278     7 C    1.274
    10   1 H    0.999 --     7 C    0.969
    11   6 C    3.978 --     1 C    1.498     9 C    1.278     4 H    0.970
    12   1 H    0.999 --     1 C    0.971
    13   6 C    3.981 --    23 C    1.285    14 C    1.282     3 N    1.263
    14   6 C    3.984 --    17 C    1.486    13 C    1.282    18 H    0.969
    15   1 H    0.999 --    21 C    0.971
    16   1 H    1.000 --    23 C    0.971
    17   6 C    3.989 --    14 C    1.486    19 C    1.408    20 H    0.971
    18   1 H    1.000 --    14 C    0.969
    19   6 C    3.969 --    17 C    1.408    21 C    1.402    22 H    0.973
    20   1 H    1.000 --    17 C    0.971
    21   6 C    3.990 --    23 C    1.494    19 C    1.402    15 H    0.971
    22   1 H    1.000 --    19 C    0.973
    23   6 C    3.978 --    21 C    1.494    13 C    1.285    16 H    0.971
    24   8 O    1.754 --    26 H    0.893    25 H    0.806
    25   1 H    0.913 --    24 O    0.806
    26   1 H    0.894 --    24 O    0.893
 ---------------------------------------------------------------------------

molecular dipole:
                 x           y           z       tot (Debye)
 q only:       11.439       0.733       6.194
   full:       11.013       0.943       6.001      31.969

 projected vibrational frequencies (cm⁻¹)
eigval :       -0.00    -0.00     0.00     0.00     0.00     0.00
eigval :      -31.33    58.72    61.57    67.06    82.39   111.51
eigval :      191.67   206.46   219.99   311.70   353.47   375.54
eigval :      384.10   461.48   473.84   492.33   535.00   574.91
eigval :      585.96   616.49   649.48   659.42   737.96   743.23
eigval :      766.25   814.67   833.07   845.35   852.78   864.89
eigval :      892.18   909.54   910.83   912.76   923.06   969.29
eigval :      978.09  1079.37  1081.17  1113.82  1122.28  1176.50
eigval :     1176.92  1195.21  1200.15  1264.84  1274.26  1293.50
eigval :     1329.41  1336.94  1391.23  1440.55  1449.87  1479.66
eigval :     1491.99  1514.24  1542.82  1546.34  1591.12  1615.65
eigval :     2669.29  3003.92  3010.93  3020.72  3023.82  3026.12
eigval :     3028.09  3050.89  3053.12  3064.84  3066.79  3625.76

   temp. (K)  partition function   enthalpy   heat capacity  entropy
                                   cal/mol     cal/K/mol   cal/K/mol   J/K/mol
 298.15  VIB  0.977E+04             6218.882     42.457     38.063
         ROT  0.213E+07              888.752      2.981     31.935
         INT  0.208E+11             7107.634     45.438     69.999
         TR   0.246E+28             1481.254      4.968     41.553
         TOT                        8588.8881    50.4057   111.5512   466.7303

       T/K    H(0)-H(T)+PV         H(T)/Eh          T*S/Eh         G(T)/Eh
   ------------------------------------------------------------------------
    298.15    0.136873E-01    0.213663E+00    0.530016E-01    0.160661E+00
   ------------------------------------------------------------------------

         :::::::::::::::::::::::::::::::::::::::::::::::::::::
         ::                  THERMODYNAMIC                  ::
         :::::::::::::::::::::::::::::::::::::::::::::::::::::
         :: total free energy         -38.903065938571 Eh   ::
         ::.................................................::
         :: total energy              -39.063727317230 Eh   ::
         :: zero point energy           0.199975698571 Eh   ::
         :: G(RRHO) w/o ZPVE           -0.039314319913 Eh   ::
         :: G(RRHO) contrib.            0.160661378658 Eh   ::
         :::::::::::::::::::::::::::::::::::::::::::::::::::::

           -------------------------------------------------
          | TOTAL ENERGY              -39.063727317230 Eh   |
          | TOTAL ENTHALPY            -38.850064354270 Eh   |
          | TOTAL FREE ENERGY         -38.903065938571 Eh   |
          | GRADIENT NORM               0.000762344655 Eh/α |
          | HOMO-LUMO GAP               2.872951420816 eV   |
           -------------------------------------------------

 * finished run on 2025/10/17 at 22:00:19.380
normal termination of xtb
