   * xtb version 6.7.1 (edcfbbe) compiled by 'albert@albert-system' on 2024-07-22

   ID    Z sym.   atoms
    1    6 C      1, 2, 5, 7, 9, 11, 13, 14, 17, 19, 21, 23
    2    7 N      3
    3    1 H      4, 6, 8, 10, 12, 15, 16, 18, 20, 22

          program call               : xtb tb_lite_results_shiftn0p1_gp151_b0_rot0_solute.xyz --ohess --chrg -1
          :  Hamiltonian                  GFN2-xTB          :
 * total energy  :   -33.8915652 Eh     change       -0.2052545E-09 Eh
 * total energy  :   -33.8952691 Eh     change       -0.3703923E-02 Eh
 * total energy  :   -33.8961872 Eh     change       -0.9181270E-03 Eh
 * total energy  :   -33.8965550 Eh     change       -0.3677846E-03 Eh
 * total energy  :   -33.8969021 Eh     change       -0.3471203E-03 Eh
 * total energy  :   -33.8972367 Eh     change       -0.3346081E-03 Eh
 * total energy  :   -33.8975690 Eh     change       -0.3323001E-03 Eh
 * total energy  :   -33.8979024 Eh     change       -0.3334107E-03 Eh
 * total energy  :   -33.8982247 Eh     change       -0.3223042E-03 Eh
 * total energy  :   -33.8985211 Eh     change       -0.2963854E-03 Eh
 * total energy  :   -33.8989002 Eh     change       -0.3790385E-03 Eh
 * total energy  :   -33.8991983 Eh     change       -0.2981525E-03 Eh
 * total energy  :   -33.8993643 Eh     change       -0.1660219E-03 Eh
 * total energy  :   -33.8995011 Eh     change       -0.1367141E-03 Eh
 * total energy  :   -33.8995400 Eh     change       -0.3894928E-04 Eh
 * total energy  :   -33.8995507 Eh     change       -0.1066327E-04 Eh
 * total energy  :   -33.8995539 Eh     change       -0.3286001E-05 Eh
 * total energy  :   -33.8995582 Eh     change       -0.4228508E-05 Eh
   *** GEOMETRY OPTIMIZATION CONVERGED AFTER 18 ITERATIONS ***

 final structure:
================
23
 xtb: 6.7.1 (edcfbbe)
C           -7.43802585038553       -3.54640329764108       -3.11504436677868
C           -8.22331325508434       -3.46958134228515       -4.25942375251910
N           -5.80732977822582       -0.30039292582942       -3.04677470865669
H           -6.05979734858374       -2.55264996089939       -1.81943038804029
C           -8.20402583675236       -2.29425512912480       -5.00000575878324
H           -8.83114755947289       -4.31063516290754       -4.57206534470563
C           -7.44610847335786       -1.21836187760956       -4.60521564591539
H           -8.79934449735020       -2.22590249726486       -5.90645848237417
C           -6.65088313950564       -1.26148276415072       -3.43033698644096
H           -7.42834722827267       -0.31799953947474       -5.20735064169032
C           -6.66982260532391       -2.48179266956492       -2.71098493843922
H           -7.43607808527275       -4.46205794042494       -2.53052952052613
C           -5.97038984013684        1.00821572727114       -3.25126715676819
C           -7.22598267787705        1.66856775098892       -3.30077227881898
H           -4.03304302084368        3.81822914333528       -3.40100852800264
H           -3.85398019308031        1.37220521914381       -3.22815353013535
C           -7.31585410924851        3.03671885202266       -3.38849446067901
H           -8.12664875194188        1.06933180869700       -3.24342247451087
C           -6.17608270289117        3.82986736527185       -3.43555485802420
H           -8.29477476050282        3.50779639412516       -3.42024915119717
C           -4.93323080920947        3.21054567484226       -3.37300203887487
H           -6.25514004027427        4.90811660202651       -3.51184215553048
C           -4.82678320769684        1.84425157316387       -3.27958624275100

          :  Hamiltonian                  GFN2-xTB          :
         :: gradient norm              0.000796349683 Eh/a0 ::
         :: HOMO-LUMO gap              2.773994979573 eV    ::
         :: SCC energy               -34.523291750443 Eh    ::
         :: -> dispersion             -0.023865222975 Eh    ::
         :: repulsion energy           0.623733572011 Eh    ::

    * Orbital Energies and Occupations

         #    Occupation            Energy/Eh            Energy/eV
      -------------------------------------------------------------
         1        2.0000           -0.4786640             -13.0251
       ...           ...                  ...                  ...
        20        2.0000           -0.3206051              -8.7241
        21        2.0000           -0.3108941              -8.4599
        22        2.0000           -0.3060749              -8.3287
        23        2.0000           -0.2868507              -7.8056
        24        2.0000           -0.2727218              -7.4211
        25        2.0000           -0.2720338              -7.4024
        26        2.0000           -0.2712573              -7.3813
        27        2.0000           -0.2519908              -6.8570
        28        2.0000           -0.2427143              -6.6046
        29        2.0000           -0.2415988              -6.5742
        30        2.0000           -0.2412847              -6.5657
        31        2.0000           -0.1756285              -4.7791
        32        2.0000           -0.1600878              -4.3562 (HOMO)
        33                         -0.0581454              -1.5822 (LUMO)
        34                         -0.0567314              -1.5437
        35                         -0.0561664              -1.5284
        36                         -0.0207117              -0.5636
        37                          0.0692073               1.8832
        38                          0.0903898               2.4596
        39                          0.2565197               6.9803
        40                          0.2661708               7.2429
        41                          0.2707469               7.3674
        42                          0.2853902               7.7659
        43                          0.3058423               8.3224
       ...                                ...                  ...
        62                          0.8670913              23.5948
      -------------------------------------------------------------
                  HL-Gap            0.1019424 Eh            2.7740 eV

     #   Z          covCN         q      C6AA      α(0)
     1   6 C        2.915    -0.045    29.113     8.848
     2   6 C        2.916    -0.076    29.888     8.965
     3   7 N        1.846    -0.357    30.148     8.137
     4   1 H        0.925    -0.006     3.165     2.782
     5   6 C        2.915    -0.044    29.098     8.846
     6   1 H        0.925    -0.031     3.649     2.987
     7   6 C        2.919    -0.074    29.848     8.959
     8   1 H        0.925    -0.026     3.545     2.944
     9   6 C        2.912     0.089    26.017     8.364
    10   1 H        0.925    -0.010     3.242     2.816
    11   6 C        2.926    -0.073    29.815     8.955
    12   1 H        0.925    -0.025     3.534     2.940
    13   6 C        2.912     0.089    26.020     8.364
    14   6 C        2.919    -0.074    29.858     8.961
    15   1 H        0.925    -0.025     3.540     2.942
    16   1 H        0.925    -0.006     3.170     2.784
    17   6 C        2.915    -0.044    29.098     8.846
    18   1 H        0.925    -0.010     3.246     2.818
    19   6 C        2.916    -0.076    29.895     8.966
    20   1 H        0.925    -0.026     3.550     2.947
    21   6 C        2.915    -0.045    29.113     8.848
    22   1 H        0.925    -0.031     3.654     2.989
    23   6 C        2.926    -0.073    29.824     8.956

Wiberg/Mayer (AO) data.
largest (>0.10) Wiberg bond orders for each atom

     #   Z sym  total        # sym  WBO       # sym  WBO       # sym  WBO
 ---------------------------------------------------------------------------
     1   6 C    3.988 --    11 C    1.505     2 C    1.392    12 H    0.971
     2   6 C    3.955 --     5 C    1.394     1 C    1.392     6 H    0.972
     3   7 N    3.097 --    13 C    1.329     9 C    1.326
     4   1 H    1.000 --    11 C    0.972
     5   6 C    3.987 --     7 C    1.502     2 C    1.394     8 H    0.970
     6   1 H    0.999 --     2 C    0.972
     7   6 C    3.977 --     5 C    1.502     9 C    1.251    10 H    0.970
     8   1 H    0.999 --     5 C    0.970
     9   6 C    3.981 --     3 N    1.326    11 C    1.260     7 C    1.251
    10   1 H    1.000 --     7 C    0.970
    11   6 C    3.976 --     1 C    1.505     9 C    1.260     4 H    0.972
    12   1 H    0.999 --     1 C    0.971
    13   6 C    3.981 --     3 N    1.329    23 C    1.259    14 C    1.250
    14   6 C    3.977 --    17 C    1.503    13 C    1.250    18 H    0.970
    15   1 H    0.999 --    21 C    0.971
    16   1 H    1.000 --    23 C    0.972
    17   6 C    3.987 --    14 C    1.503    19 C    1.394    20 H    0.970
    18   1 H    1.000 --    14 C    0.970
    19   6 C    3.955 --    17 C    1.394    21 C    1.392    22 H    0.972
    20   1 H    0.999 --    17 C    0.970
    21   6 C    3.988 --    23 C    1.505    19 C    1.392    15 H    0.971
    22   1 H    0.999 --    19 C    0.972
    23   6 C    3.976 --    21 C    1.505    13 C    1.259    16 H    0.972
 ---------------------------------------------------------------------------

molecular dipole:
                 x           y           z       tot (Debye)
 q only:       12.523       0.021       6.652
   full:       12.207       0.129       6.467      35.115

 projected vibrational frequencies (cm⁻¹)
eigval :       -0.00    -0.00     0.00     0.00     0.00     0.00
eigval :       61.41    67.83    80.13   200.67   203.99   308.20
eigval :      358.17   377.66   381.54   454.04   480.92   530.55
eigval :      566.41   585.65   603.44   646.46   653.79   733.71
eigval :      736.87   796.80   817.25   828.21   846.06   855.53
eigval :      892.49   908.06   908.24   908.55   916.95   966.45
eigval :      973.44  1074.55  1075.70  1110.09  1116.52  1179.94
eigval :     1180.40  1195.45  1196.57  1267.43  1280.67  1290.66
eigval :     1336.08  1341.52  1413.98  1451.60  1459.65  1483.43
eigval :     1531.84  1535.58  1549.11  1598.03  1621.36  2983.00
eigval :     2985.35  2988.29  2989.81  3022.15  3023.65  3040.82
eigval :     3043.49  3048.60  3050.67

   temp. (K)  partition function   enthalpy   heat capacity  entropy
                                   cal/mol     cal/K/mol   cal/K/mol   J/K/mol
 298.15  VIB   589.                 4746.301     35.252     27.938
         ROT  0.672E+06              888.752      2.981     29.645
         INT  0.395E+09             5635.053     38.232     57.583
         TR   0.211E+28             1481.254      4.968     41.250
         TOT                        7116.3069    43.2006    98.8327   413.5160

       T/K    H(0)-H(T)+PV         H(T)/Eh          T*S/Eh         G(T)/Eh
   ------------------------------------------------------------------------
    298.15    0.113406E-01    0.189301E+00    0.469586E-01    0.142342E+00
   ------------------------------------------------------------------------

         :::::::::::::::::::::::::::::::::::::::::::::::::::::
         ::                  THERMODYNAMIC                  ::
         :::::::::::::::::::::::::::::::::::::::::::::::::::::
         :: total free energy         -33.757216118243 Eh   ::
         ::.................................................::
         :: total energy              -33.899558178430 Eh   ::
         :: zero point energy           0.177960111462 Eh   ::
         :: G(RRHO) w/o ZPVE           -0.035618051276 Eh   ::
         :: G(RRHO) contrib.            0.142342060186 Eh   ::
         :::::::::::::::::::::::::::::::::::::::::::::::::::::

           -------------------------------------------------
          | TOTAL ENERGY              -33.899558178430 Eh   |
          | TOTAL ENTHALPY            -33.710257510127 Eh   |
          | TOTAL FREE ENERGY         -33.757216118243 Eh   |
          | GRADIENT NORM               0.000796603883 Eh/α |
          | HOMO-LUMO GAP               2.773992570872 eV   |
           -------------------------------------------------

 * finished run on 2025/10/17 at 22:00:00.951
normal termination of xtb
