   * xtb version 6.7.1 (edcfbbe) compiled by 'albert@albert-system' on 2024-07-22

   ID    Z sym.   atoms
    1    6 C      1, 2, 5, 7, 9, 11, 13, 14, 17, 19, 21, 23
    2    7 N      3
    3    1 H      4, 6, 8, 10, 12, 15, 16, 18, 20, 22, 25, 26
    4    8 O      24

          program call               : xtb tb_lite_results_shiftn0p1_gp151_b0_rot0_complex.xyz --ohess --chrg -1 --alpb water
      * Solvation model:               ALPB
        Solvent                        water
        Solvent mass                       1.8000E+01 g/mol
          :  Hamiltonian                  GFN2-xTB          :
 * total energy  :   -39.0549359 Eh     change       -0.1070482E-08 Eh
 * total energy  :   -39.0592152 Eh     change       -0.4279301E-02 Eh
 * total energy  :   -39.0601995 Eh     change       -0.9842266E-03 Eh
 * total energy  :   -39.0607174 Eh     change       -0.5179587E-03 Eh
 * total energy  :   -39.0612978 Eh     change       -0.5803710E-03 Eh
 * total energy  :   -39.0617867 Eh     change       -0.4888782E-03 Eh
 * total energy  :   -39.0622444 Eh     change       -0.4577482E-03 Eh
 * total energy  :   -39.0627270 Eh     change       -0.4825426E-03 Eh
 * total energy  :   -39.0631471 Eh     change       -0.4201368E-03 Eh
 * total energy  :   -39.0634403 Eh     change       -0.2931719E-03 Eh
 * total energy  :   -39.0636397 Eh     change       -0.1994259E-03 Eh
 * total energy  :   -39.0637095 Eh     change       -0.6981742E-04 Eh
 * total energy  :   -39.0637195 Eh     change       -0.1001573E-04 Eh
 * total energy  :   -39.0637241 Eh     change       -0.4539889E-05 Eh
   *** GEOMETRY OPTIMIZATION CONVERGED AFTER 14 ITERATIONS ***

 final structure:
================
26
 xtb: 6.7.1 (edcfbbe)
C           -7.41289614955874       -3.55458013443934       -3.16239473442984
C           -8.19684691889118       -3.43810406083370       -4.30250075675487
N           -5.82164830287151       -0.28833590163448       -2.94705754251532
H           -6.03523695841037       -2.60182913738806       -1.83348286851119
C           -8.18302800522861       -2.23917831469117       -4.99960606774188
H           -8.79479677731405       -4.26866204269476       -4.64851454626852
C           -7.43026622079371       -1.17341712093954       -4.56266050506495
H           -8.76739017424550       -2.13662890802429       -5.90718179488973
C           -6.64803583381827       -1.25670093172564       -3.38699237220009
H           -7.40717048985238       -0.25463684748220       -5.13843436001760
C           -6.65466093222360       -2.49962787819095       -2.71395920449379
H           -7.39697855083726       -4.48991236225065       -2.61710137022675
C           -5.98766169143642        1.02849798036312       -3.19896106504736
C           -7.23980656010185        1.67070499556299       -3.32691641590512
H           -4.05497792325765        3.82698730195849       -3.39088192358774
H           -3.87987530445043        1.39015031123255       -3.09167739502642
C           -7.33090640562281        3.03503162790486       -3.48469189586793
H           -8.13952192007008        1.06865795713680       -3.27303390394175
C           -6.19286998689336        3.82720124345573       -3.52226371204245
H           -8.30852292006902        3.49283740509281       -3.57700713858929
C           -4.95230274252054        3.22161610525845       -3.37473891509276
H           -6.27195126305162        4.89637239157098       -3.65501785116796
C           -4.84681314558668        1.86056110323526       -3.21057044805788
O           -3.99692911832074       -0.87188005432550       -1.07344622451399
H           -4.64453987247889       -0.68307797144209       -1.81511957910225
H           -4.30346311026880       -0.33977578372066       -0.33340000546883

          :  Hamiltonian                  GFN2-xTB          :
         :: gradient norm              0.000919912999 Eh/a0 ::
         :: HOMO-LUMO gap              2.873550378317 eV    ::
         :: SCC energy               -39.716994913290 Eh    ::
         :: -> dispersion             -0.026437262894 Eh    ::
         :: -> Gsolv                  -0.078314555072 Eh    ::
         :: repulsion energy           0.653270848585 Eh    ::

    * Orbital Energies and Occupations

         #    Occupation            Energy/Eh            Energy/eV
      -------------------------------------------------------------
         1        2.0000           -0.6430829             -17.4992
       ...           ...                  ...                  ...
        24        2.0000           -0.4444549             -12.0942
        25        2.0000           -0.4397196             -11.9654
        26        2.0000           -0.4172207             -11.3532
        27        2.0000           -0.4083151             -11.1108
        28        2.0000           -0.4068927             -11.0721
        29        2.0000           -0.4045065             -11.0072
        30        2.0000           -0.4021083             -10.9419
        31        2.0000           -0.3869706             -10.5300
        32        2.0000           -0.3764504             -10.2437
        33        2.0000           -0.3760888             -10.2339
        34        2.0000           -0.3735643             -10.1652
        35        2.0000           -0.3221317              -8.7656
        36        2.0000           -0.2983255              -8.1178 (HOMO)
        37                         -0.1927245              -5.2443 (LUMO)
        38                         -0.1919965              -5.2245
        39                         -0.1897899              -5.1644
        40                         -0.1562421              -4.2516
        41                         -0.0649005              -1.7660
        42                         -0.0449641              -1.2235
        43                          0.1084593               2.9513
        44                          0.1324784               3.6049
        45                          0.1422517               3.8709
        46                          0.1518434               4.1319
        47                          0.1589685               4.3258
       ...                                ...                  ...
        68                          0.7217131              19.6388
      -------------------------------------------------------------
                  HL-Gap            0.1056010 Eh            2.8735 eV

     #   Z          covCN         q      C6AA      α(0)
     1   6 C        2.916    -0.046    29.136     8.851
     2   6 C        2.917    -0.072    29.806     8.953
     3   7 N        1.852    -0.415    31.796     8.357
     4   1 H        0.925     0.006     2.963     2.692
     5   6 C        2.916    -0.046    29.154     8.854
     6   1 H        0.926    -0.001     3.067     2.739
     7   6 C        2.920    -0.076    29.908     8.968
     8   1 H        0.925    -0.006     3.157     2.779
     9   6 C        2.911     0.078    26.262     8.403
    10   1 H        0.925    -0.023     3.492     2.922
    11   6 C        2.926    -0.078    29.937     8.973
    12   1 H        0.925     0.002     3.015     2.715
    13   6 C        2.911     0.078    26.254     8.402
    14   6 C        2.920    -0.074    29.851     8.960
    15   1 H        0.925     0.005     2.969     2.695
    16   1 H        0.925     0.004     2.994     2.706
    17   6 C        2.916    -0.046    29.144     8.853
    18   1 H        0.925    -0.020     3.432     2.897
    19   6 C        2.918    -0.070    29.756     8.945
    20   1 H        0.925    -0.003     3.105     2.755
    21   6 C        2.916    -0.045    29.127     8.850
    22   1 H        0.926     0.002     3.017     2.716
    23   6 C        2.927    -0.075    29.872     8.963
    24   8 O        1.604    -0.700    27.701     7.103
    25   1 H        0.806     0.295     0.734     1.346
    26   1 H        0.805     0.326     0.648     1.265

Wiberg/Mayer (AO) data.
largest (>0.10) Wiberg bond orders for each atom

     #   Z sym  total        # sym  WBO       # sym  WBO       # sym  WBO
 ---------------------------------------------------------------------------
     1   6 C    3.990 --    11 C    1.498     2 C    1.398    12 H    0.971
     2   6 C    3.969 --     5 C    1.407     1 C    1.398     6 H    0.973
     3   7 N    3.084 --     9 C    1.282    13 C    1.263
     4   1 H    1.000 --    11 C    0.970
     5   6 C    3.989 --     7 C    1.488     2 C    1.407     8 H    0.971
     6   1 H    1.000 --     2 C    0.973
     7   6 C    3.983 --     5 C    1.488     9 C    1.274    10 H    0.969
     8   1 H    1.000 --     5 C    0.971
     9   6 C    3.980 --     3 N    1.282    11 C    1.278     7 C    1.274
    10   1 H    0.999 --     7 C    0.969
    11   6 C    3.978 --     1 C    1.498     9 C    1.278     4 H    0.970
    12   1 H    0.999 --     1 C    0.971
    13   6 C    3.981 --    23 C    1.285    14 C    1.282     3 N    1.263
    14   6 C    3.984 --    17 C    1.485    13 C    1.282    18 H    0.969
    15   1 H    0.999 --    21 C    0.971
    16   1 H    1.000 --    23 C    0.971
    17   6 C    3.989 --    14 C    1.485    19 C    1.408    20 H    0.971
    18   1 H    1.000 --    14 C    0.969
    19   6 C    3.969 --    17 C    1.408    21 C    1.401    22 H    0.973
    20   1 H    1.000 --    17 C    0.971
    21   6 C    3.990 --    23 C    1.495    19 C    1.401    15 H    0.971
    22   1 H    1.000 --    19 C    0.973
    23   6 C    3.978 --    21 C    1.495    13 C    1.285    16 H    0.971
    24   8 O    1.754 --    26 H    0.893    25 H    0.806
    25   1 H    0.913 --    24 O    0.806
    26   1 H    0.894 --    24 O    0.893
 ---------------------------------------------------------------------------

molecular dipole:
                 x           y           z       tot (Debye)
 q only:       11.450       0.718       6.214
   full:       11.023       0.926       6.021      32.011

 projected vibrational frequencies (cm⁻¹)
eigval :       -0.00    -0.00    -0.00     0.00     0.00     0.00
eigval :      -28.54    58.25    61.78    66.75    85.74   133.93
eigval :      190.99   206.19   220.02   311.70   353.24   375.34
eigval :      384.01   461.42   477.11   497.86   535.08   574.85
eigval :      585.95   616.44   649.33   659.35   737.34   742.84
eigval :      765.26   814.55   832.48   844.88   852.53   864.61
eigval :      892.25   909.22   909.98   912.17   922.96   969.47
eigval :      978.22  1079.09  1081.62  1113.52  1122.11  1176.12
eigval :     1176.73  1194.84  1200.16  1264.95  1274.24  1293.55
eigval :     1329.47  1337.36  1391.50  1440.57  1449.94  1479.70
eigval :     1492.51  1516.13  1543.41  1546.07  1591.23  1615.84
eigval :     2674.70  3002.97  3012.45  3021.15  3026.53  3028.30
eigval :     3029.91  3051.47  3055.04  3066.09  3068.39  3621.26

   temp. (K)  partition function   enthalpy   heat capacity  entropy
                                   cal/mol     cal/K/mol   cal/K/mol   J/K/mol
 298.15  VIB  0.833E+04             6187.689     42.453     37.660
         ROT  0.213E+07              888.752      2.981     31.935
         INT  0.177E+11             7076.441     45.433     69.596
         TR   0.246E+28             1481.254      4.968     41.553
         TOT                        8557.6953    50.4016   111.1482   465.0441

       T/K    H(0)-H(T)+PV         H(T)/Eh          T*S/Eh         G(T)/Eh
   ------------------------------------------------------------------------
    298.15    0.136376E-01    0.213713E+00    0.528101E-01    0.160903E+00
   ------------------------------------------------------------------------

         :::::::::::::::::::::::::::::::::::::::::::::::::::::
         ::                  THERMODYNAMIC                  ::
         :::::::::::::::::::::::::::::::::::::::::::::::::::::
         :: total free energy         -38.902820999601 Eh   ::
         ::.................................................::
         :: total energy              -39.063724066757 Eh   ::
         :: zero point energy           0.200075609609 Eh   ::
         :: G(RRHO) w/o ZPVE           -0.039172542453 Eh   ::
         :: G(RRHO) contrib.            0.160903067156 Eh   ::
         :::::::::::::::::::::::::::::::::::::::::::::::::::::

           -------------------------------------------------
          | TOTAL ENERGY              -39.063724066757 Eh   |
          | TOTAL ENTHALPY            -38.850010901632 Eh   |
          | TOTAL FREE ENERGY         -38.902820999601 Eh   |
          | GRADIENT NORM               0.000920088096 Eh/α |
          | HOMO-LUMO GAP               2.873548153366 eV   |
           -------------------------------------------------

 * finished run on 2025/10/17 at 21:59:58.540
normal termination of xtb
