   * xtb version 6.7.1 (edcfbbe) compiled by 'albert@albert-system' on 2024-07-22

   ID    Z sym.   atoms
    1    6 C      1, 2, 5, 7, 9, 11, 13, 14, 17, 19, 21, 23
    2    7 N      3
    3    1 H      4, 6, 8, 10, 12, 15, 16, 18, 20, 22, 25, 26
    4    8 O      24

          program call               : xtb tb_lite_results_shiftn0p05_gp151_b0_rot0_complex.xyz --ohess --chrg -1 --alpb water
      * Solvation model:               ALPB
        Solvent                        water
        Solvent mass                       1.8000E+01 g/mol
          :  Hamiltonian                  GFN2-xTB          :
 * total energy  :   -39.0549055 Eh     change       -0.1205187E-08 Eh
 * total energy  :   -39.0590672 Eh     change       -0.4161695E-02 Eh
 * total energy  :   -39.0601290 Eh     change       -0.1061723E-02 Eh
 * total energy  :   -39.0607154 Eh     change       -0.5864535E-03 Eh
 * total energy  :   -39.0613321 Eh     change       -0.6166511E-03 Eh
 * total energy  :   -39.0617883 Eh     change       -0.4562272E-03 Eh
 * total energy  :   -39.0622070 Eh     change       -0.4187635E-03 Eh
 * total energy  :   -39.0626486 Eh     change       -0.4415746E-03 Eh
 * total energy  :   -39.0630420 Eh     change       -0.3934291E-03 Eh
 * total energy  :   -39.0633963 Eh     change       -0.3542211E-03 Eh
 * total energy  :   -39.0636178 Eh     change       -0.2215522E-03 Eh
 * total energy  :   -39.0636954 Eh     change       -0.7761684E-04 Eh
 * total energy  :   -39.0637082 Eh     change       -0.1277369E-04 Eh
 * total energy  :   -39.0637173 Eh     change       -0.9110126E-05 Eh
 * total energy  :   -39.0637217 Eh     change       -0.4371774E-05 Eh
 * total energy  :   -39.0637165 Eh     change        0.5236036E-05 Eh
 * total energy  :   -39.0637255 Eh     change       -0.9009784E-05 Eh
 * total energy  :   -39.0637273 Eh     change       -0.1816823E-05 Eh
   *** GEOMETRY OPTIMIZATION CONVERGED AFTER 18 ITERATIONS ***

 final structure:
================
26
 xtb: 6.7.1 (edcfbbe)
C           -7.41184871457543       -3.55591052800766       -3.15726854623698
C           -8.19441909864960       -3.43961036589918       -4.29866172553251
N           -5.81708392282840       -0.29091623502246       -2.94409910926901
H           -6.03489558790625       -2.60365563841698       -1.82799784871516
C           -8.17854262074160       -2.24140662370864       -4.99771765555795
H           -8.79363455426913       -4.26981957341019       -4.64417710721416
C           -7.42496976640040       -1.17625406275808       -4.56103926194417
H           -8.76305862319207       -2.13913081789406       -5.90510580059804
C           -6.64412964674401       -1.25892692023274       -3.38406070555716
H           -7.39994041943419       -0.25824676791906       -5.13809931745929
C           -6.65309380726384       -2.50092864022109       -2.70928385292116
H           -7.39772580636252       -4.49018071119069       -2.61005263724006
C           -5.98275134511637        1.02623075655561       -3.19616422597892
C           -7.23486426775478        1.66864653759089       -3.32327074062156
H           -4.04961373542442        3.82422767578116       -3.38564488474008
H           -3.87465299614965        1.38805623849714       -3.09029042386626
C           -7.32605659793786        3.03313224064103       -3.47928638079811
H           -8.13498214069822        1.06668022250176       -3.26958602746597
C           -6.18792627536469        3.82504073179969       -3.51551875261092
H           -8.30384163807169        3.49127428155021       -3.57026556083820
C           -4.94735458050149        3.21939591590210       -3.36917734141898
H           -6.26723306035009        4.89457704305527       -3.64642220722223
C           -4.84189806120536        1.85795428202875       -3.20768710032206
O           -3.99310985662012       -0.86808181604695       -1.06995005631339
H           -4.64253658850762       -0.68135339653325       -1.81142634870154
H           -4.29537040884685       -0.33091644943131       -0.33179582012465

          :  Hamiltonian                  GFN2-xTB          :
         :: gradient norm              0.000496101784 Eh/a0 ::
         :: HOMO-LUMO gap              2.873258308258 eV    ::
         :: SCC energy               -39.716599747126 Eh    ::
         :: -> dispersion             -0.026436132641 Eh    ::
         :: -> Gsolv                  -0.078321012307 Eh    ::
         :: repulsion energy           0.652872460839 Eh    ::

    * Orbital Energies and Occupations

         #    Occupation            Energy/Eh            Energy/eV
      -------------------------------------------------------------
         1        2.0000           -0.6429441             -17.4954
       ...           ...                  ...                  ...
        24        2.0000           -0.4444765             -12.0948
        25        2.0000           -0.4397087             -11.9651
        26        2.0000           -0.4171997             -11.3526
        27        2.0000           -0.4082063             -11.1079
        28        2.0000           -0.4068706             -11.0715
        29        2.0000           -0.4045421             -11.0082
        30        2.0000           -0.4021048             -10.9418
        31        2.0000           -0.3869883             -10.5305
        32        2.0000           -0.3764990             -10.2451
        33        2.0000           -0.3761270             -10.2349
        34        2.0000           -0.3735857             -10.1658
        35        2.0000           -0.3222026              -8.7676
        36        2.0000           -0.2983613              -8.1188 (HOMO)
        37                         -0.1927710              -5.2456 (LUMO)
        38                         -0.1920274              -5.2253
        39                         -0.1898245              -5.1654
        40                         -0.1563665              -4.2549
        41                         -0.0649516              -1.7674
        42                         -0.0450966              -1.2271
        43                          0.1082124               2.9446
        44                          0.1323989               3.6028
        45                          0.1420956               3.8666
        46                          0.1517406               4.1291
        47                          0.1587438               4.3196
       ...                                ...                  ...
        68                          0.7211760              19.6242
      -------------------------------------------------------------
                  HL-Gap            0.1055903 Eh            2.8733 eV

     #   Z          covCN         q      C6AA      α(0)
     1   6 C        2.916    -0.046    29.137     8.852
     2   6 C        2.917    -0.072    29.806     8.953
     3   7 N        1.852    -0.415    31.792     8.357
     4   1 H        0.925     0.005     2.965     2.693
     5   6 C        2.916    -0.047    29.155     8.854
     6   1 H        0.926    -0.001     3.068     2.739
     7   6 C        2.920    -0.076    29.906     8.968
     8   1 H        0.925    -0.005     3.154     2.777
     9   6 C        2.911     0.078    26.262     8.403
    10   1 H        0.925    -0.023     3.492     2.922
    11   6 C        2.926    -0.077    29.936     8.973
    12   1 H        0.925     0.003     3.014     2.715
    13   6 C        2.911     0.078    26.254     8.402
    14   6 C        2.920    -0.074    29.848     8.959
    15   1 H        0.925     0.005     2.968     2.694
    16   1 H        0.925     0.004     2.993     2.705
    17   6 C        2.916    -0.046    29.143     8.853
    18   1 H        0.925    -0.020     3.433     2.897
    19   6 C        2.918    -0.070    29.754     8.945
    20   1 H        0.925    -0.003     3.104     2.755
    21   6 C        2.916    -0.045    29.128     8.850
    22   1 H        0.926     0.002     3.017     2.716
    23   6 C        2.927    -0.075    29.871     8.963
    24   8 O        1.604    -0.700    27.710     7.104
    25   1 H        0.806     0.295     0.735     1.346
    26   1 H        0.805     0.325     0.649     1.265

Wiberg/Mayer (AO) data.
largest (>0.10) Wiberg bond orders for each atom

     #   Z sym  total        # sym  WBO       # sym  WBO       # sym  WBO
 ---------------------------------------------------------------------------
     1   6 C    3.990 --    11 C    1.498     2 C    1.399    12 H    0.971
     2   6 C    3.969 --     5 C    1.407     1 C    1.399     6 H    0.973
     3   7 N    3.084 --     9 C    1.282    13 C    1.263
     4   1 H    1.000 --    11 C    0.970
     5   6 C    3.989 --     7 C    1.488     2 C    1.407     8 H    0.971
     6   1 H    1.000 --     2 C    0.973
     7   6 C    3.983 --     5 C    1.488     9 C    1.274    10 H    0.969
     8   1 H    1.000 --     5 C    0.971
     9   6 C    3.980 --     3 N    1.282    11 C    1.278     7 C    1.274
    10   1 H    0.999 --     7 C    0.969
    11   6 C    3.978 --     1 C    1.498     9 C    1.278     4 H    0.970
    12   1 H    0.999 --     1 C    0.971
    13   6 C    3.981 --    23 C    1.285    14 C    1.282     3 N    1.263
    14   6 C    3.984 --    17 C    1.485    13 C    1.282    18 H    0.969
    15   1 H    0.999 --    21 C    0.971
    16   1 H    1.000 --    23 C    0.971
    17   6 C    3.989 --    14 C    1.485    19 C    1.408    20 H    0.971
    18   1 H    1.000 --    14 C    0.969
    19   6 C    3.969 --    17 C    1.408    21 C    1.402    22 H    0.973
    20   1 H    1.000 --    17 C    0.971
    21   6 C    3.990 --    23 C    1.494    19 C    1.402    15 H    0.971
    22   1 H    1.000 --    19 C    0.973
    23   6 C    3.978 --    21 C    1.494    13 C    1.285    16 H    0.971
    24   8 O    1.753 --    26 H    0.893    25 H    0.805
    25   1 H    0.913 --    24 O    0.805
    26   1 H    0.894 --    24 O    0.893
 ---------------------------------------------------------------------------

molecular dipole:
                 x           y           z       tot (Debye)
 q only:       11.441       0.726       6.203
   full:       11.015       0.935       6.010      31.981

 projected vibrational frequencies (cm⁻¹)
eigval :       -0.00    -0.00    -0.00    -0.00     0.00     0.00
eigval :      -27.68    58.76    62.15    67.21    84.73   122.85
eigval :      191.84   206.45   220.09   311.68   353.54   375.51
eigval :      384.05   461.61   476.79   496.46   535.12   574.92
eigval :      585.98   616.55   649.46   659.40   737.86   743.23
eigval :      769.09   814.72   833.14   845.19   852.63   864.88
eigval :      892.23   909.50   910.21   912.25   923.21   969.32
eigval :      978.13  1079.17  1081.03  1113.80  1122.22  1176.43
eigval :     1176.87  1195.09  1199.99  1264.62  1274.22  1293.44
eigval :     1329.39  1336.96  1391.08  1440.55  1449.88  1479.50
eigval :     1491.88  1515.48  1542.87  1546.24  1591.04  1615.58
eigval :     2663.49  3003.42  3010.35  3020.78  3025.89  3026.59
eigval :     3028.97  3051.69  3053.31  3065.35  3067.59  3621.45

   temp. (K)  partition function   enthalpy   heat capacity  entropy
                                   cal/mol     cal/K/mol   cal/K/mol   J/K/mol
 298.15  VIB  0.876E+04             6197.664     42.459     37.808
         ROT  0.213E+07              888.752      2.981     31.935
         INT  0.186E+11             7086.416     45.440     69.743
         TR   0.246E+28             1481.254      4.968     41.553
         TOT                        8567.6704    50.4077   111.2953   465.6596

       T/K    H(0)-H(T)+PV         H(T)/Eh          T*S/Eh         G(T)/Eh
   ------------------------------------------------------------------------
    298.15    0.136535E-01    0.213670E+00    0.528800E-01    0.160790E+00
   ------------------------------------------------------------------------

         :::::::::::::::::::::::::::::::::::::::::::::::::::::
         ::                  THERMODYNAMIC                  ::
         :::::::::::::::::::::::::::::::::::::::::::::::::::::
         :: total free energy         -38.902937732156 Eh   ::
         ::.................................................::
         :: total energy              -39.063727288391 Eh   ::
         :: zero point energy           0.200016095944 Eh   ::
         :: G(RRHO) w/o ZPVE           -0.039226539709 Eh   ::
         :: G(RRHO) contrib.            0.160789556235 Eh   ::
         :::::::::::::::::::::::::::::::::::::::::::::::::::::

           -------------------------------------------------
          | TOTAL ENERGY              -39.063727288391 Eh   |
          | TOTAL ENTHALPY            -38.850057740604 Eh   |
          | TOTAL FREE ENERGY         -38.902937732156 Eh   |
          | GRADIENT NORM               0.000496051911 Eh/α |
          | HOMO-LUMO GAP               2.873258332709 eV   |
           -------------------------------------------------

 * finished run on 2025/10/17 at 22:00:12.243
normal termination of xtb
