   * xtb version 6.7.1 (edcfbbe) compiled by 'albert@albert-system' on 2024-07-22

   ID    Z sym.   atoms
    1    6 C      1, 2, 5, 7, 9, 11, 13, 14, 17, 19, 21, 23
    2    7 N      3
    3    1 H      4, 6, 8, 10, 12, 15, 16, 18, 20, 22, 25, 26
    4    8 O      24

          program call               : xtb tb_lite_results_shiftn0p15_gp151_b0_rot0_complex.xyz --ohess --chrg -1 --alpb water
      * Solvation model:               ALPB
        Solvent                        water
        Solvent mass                       1.8000E+01 g/mol
          :  Hamiltonian                  GFN2-xTB          :
 * total energy  :   -39.0547837 Eh     change       -0.1023146E-08 Eh
 * total energy  :   -39.0592970 Eh     change       -0.4513298E-02 Eh
 * total energy  :   -39.0602367 Eh     change       -0.9396821E-03 Eh
 * total energy  :   -39.0607080 Eh     change       -0.4713263E-03 Eh
 * total energy  :   -39.0612468 Eh     change       -0.5388069E-03 Eh
 * total energy  :   -39.0617723 Eh     change       -0.5254963E-03 Eh
 * total energy  :   -39.0623058 Eh     change       -0.5334601E-03 Eh
 * total energy  :   -39.0628407 Eh     change       -0.5349378E-03 Eh
 * total energy  :   -39.0632540 Eh     change       -0.4133033E-03 Eh
 * total energy  :   -39.0635042 Eh     change       -0.2501998E-03 Eh
 * total energy  :   -39.0636467 Eh     change       -0.1425231E-03 Eh
 * total energy  :   -39.0637132 Eh     change       -0.6646733E-04 Eh
 * total energy  :   -39.0637213 Eh     change       -0.8054938E-05 Eh
 * total energy  :   -39.0637273 Eh     change       -0.6042711E-05 Eh
 * total energy  :   -39.0637295 Eh     change       -0.2236921E-05 Eh
 * total energy  :   -39.0637321 Eh     change       -0.2535077E-05 Eh
   *** GEOMETRY OPTIMIZATION CONVERGED AFTER 16 ITERATIONS ***

 final structure:
================
26
 xtb: 6.7.1 (edcfbbe)
C           -7.41929460785758       -3.55338708819465       -3.16517028307713
C           -8.19966122532181       -3.43782969852265       -4.30794430480691
N           -5.82873088110004       -0.28691498161686       -2.94754652703362
H           -6.04604422244225       -2.59969644705900       -1.83313968861441
C           -8.18374661254850       -2.23961341436495       -5.00653232958463
H           -8.79738142316441       -4.26867610831359       -4.65468525103619
C           -7.43227666707600       -1.17385460991351       -4.56813822061138
H           -8.76724523727706       -2.13763355459367       -5.91404992743342
C           -6.65363498510728       -1.25572459808480       -3.38989310336554
H           -7.40717811751453       -0.25602739835912       -5.14480646731028
C           -6.66280261152669       -2.49771563173657       -2.71526782054455
H           -7.40545398161165       -4.48768289628152       -2.61837114685426
C           -5.99354410143333        1.02993572287288       -3.20164092702393
C           -7.24487693809637        1.67255324976813       -3.33572157749599
H           -4.05916598110920        3.82712129099601       -3.38461855110416
H           -3.88589099923154        1.39098525013412       -3.08611782360575
C           -7.33486695291918        3.03672041734968       -3.49439799536626
H           -8.14548420008102        1.07113219219580       -3.28521161175470
C           -6.19649889543146        3.82821193546763       -3.52571197175592
H           -8.31209495236917        3.49500387534790       -3.59119191136104
C           -4.95670386540017        3.22247509042552       -3.37244798010083
H           -6.27494499595643        4.89760658081969       -3.65843210603307
C           -4.85221386807434        1.86132049298696       -3.20903117970908
O           -3.99571684617894       -0.86699926306524       -1.08202574294000
H           -4.64835309865639       -0.67948303544303       -1.82003134597689
H           -4.29885416794706       -0.33716280604842       -0.33904995928420

          :  Hamiltonian                  GFN2-xTB          :
         :: gradient norm              0.000755511111 Eh/a0 ::
         :: HOMO-LUMO gap              2.874186212245 eV    ::
         :: SCC energy               -39.717069582970 Eh    ::
         :: -> dispersion             -0.026435544787 Eh    ::
         :: -> Gsolv                  -0.078330565735 Eh    ::
         :: repulsion energy           0.653337511694 Eh    ::

    * Orbital Energies and Occupations

         #    Occupation            Energy/Eh            Energy/eV
      -------------------------------------------------------------
         1        2.0000           -0.6429753             -17.4962
       ...           ...                  ...                  ...
        24        2.0000           -0.4444648             -12.0945
        25        2.0000           -0.4396880             -11.9645
        26        2.0000           -0.4171873             -11.3522
        27        2.0000           -0.4082363             -11.1087
        28        2.0000           -0.4068661             -11.0714
        29        2.0000           -0.4045182             -11.0075
        30        2.0000           -0.4020953             -10.9416
        31        2.0000           -0.3869486             -10.5294
        32        2.0000           -0.3764632             -10.2441
        33        2.0000           -0.3760912             -10.2340
        34        2.0000           -0.3735839             -10.1657
        35        2.0000           -0.3221717              -8.7667
        36        2.0000           -0.2983343              -8.1181 (HOMO)
        37                         -0.1927099              -5.2439 (LUMO)
        38                         -0.1920140              -5.2250
        39                         -0.1897883              -5.1644
        40                         -0.1562659              -4.2522
        41                         -0.0648921              -1.7658
        42                         -0.0449592              -1.2234
        43                          0.1083061               2.9472
        44                          0.1325277               3.6063
        45                          0.1423036               3.8723
        46                          0.1519334               4.1343
        47                          0.1589886               4.3263
       ...                                ...                  ...
        68                          0.7215897              19.6355
      -------------------------------------------------------------
                  HL-Gap            0.1056244 Eh            2.8742 eV

     #   Z          covCN         q      C6AA      α(0)
     1   6 C        2.916    -0.046    29.138     8.852
     2   6 C        2.917    -0.072    29.806     8.953
     3   7 N        1.852    -0.415    31.796     8.357
     4   1 H        0.926     0.005     2.964     2.692
     5   6 C        2.916    -0.047    29.156     8.854
     6   1 H        0.926    -0.001     3.069     2.740
     7   6 C        2.920    -0.076    29.907     8.968
     8   1 H        0.925    -0.005     3.152     2.776
     9   6 C        2.911     0.078    26.262     8.403
    10   1 H        0.925    -0.023     3.490     2.921
    11   6 C        2.926    -0.077    29.936     8.973
    12   1 H        0.925     0.003     3.014     2.715
    13   6 C        2.911     0.078    26.255     8.402
    14   6 C        2.920    -0.074    29.849     8.959
    15   1 H        0.925     0.005     2.967     2.694
    16   1 H        0.925     0.004     2.991     2.704
    17   6 C        2.916    -0.046    29.143     8.852
    18   1 H        0.925    -0.020     3.433     2.898
    19   6 C        2.918    -0.070    29.754     8.945
    20   1 H        0.925    -0.003     3.105     2.756
    21   6 C        2.916    -0.045    29.128     8.850
    22   1 H        0.926     0.002     3.018     2.717
    23   6 C        2.927    -0.075    29.872     8.963
    24   8 O        1.604    -0.700    27.708     7.104
    25   1 H        0.806     0.295     0.735     1.346
    26   1 H        0.805     0.326     0.649     1.265

Wiberg/Mayer (AO) data.
largest (>0.10) Wiberg bond orders for each atom

     #   Z sym  total        # sym  WBO       # sym  WBO       # sym  WBO
 ---------------------------------------------------------------------------
     1   6 C    3.990 --    11 C    1.498     2 C    1.399    12 H    0.971
     2   6 C    3.969 --     5 C    1.407     1 C    1.399     6 H    0.973
     3   7 N    3.084 --     9 C    1.282    13 C    1.263
     4   1 H    1.000 --    11 C    0.970
     5   6 C    3.989 --     7 C    1.488     2 C    1.407     8 H    0.971
     6   1 H    1.000 --     2 C    0.973
     7   6 C    3.983 --     5 C    1.488     9 C    1.274    10 H    0.969
     8   1 H    1.000 --     5 C    0.971
     9   6 C    3.980 --     3 N    1.282    11 C    1.278     7 C    1.274
    10   1 H    0.999 --     7 C    0.969
    11   6 C    3.978 --     1 C    1.498     9 C    1.278     4 H    0.970
    12   1 H    0.999 --     1 C    0.971
    13   6 C    3.981 --    23 C    1.285    14 C    1.282     3 N    1.263
    14   6 C    3.984 --    17 C    1.485    13 C    1.282    18 H    0.969
    15   1 H    0.999 --    21 C    0.971
    16   1 H    1.000 --    23 C    0.971
    17   6 C    3.989 --    14 C    1.485    19 C    1.409    20 H    0.971
    18   1 H    1.000 --    14 C    0.969
    19   6 C    3.969 --    17 C    1.409    21 C    1.401    22 H    0.973
    20   1 H    1.000 --    17 C    0.971
    21   6 C    3.990 --    23 C    1.495    19 C    1.401    15 H    0.971
    22   1 H    1.000 --    19 C    0.973
    23   6 C    3.978 --    21 C    1.495    13 C    1.285    16 H    0.971
    24   8 O    1.754 --    26 H    0.893    25 H    0.806
    25   1 H    0.913 --    24 O    0.806
    26   1 H    0.894 --    24 O    0.893
 ---------------------------------------------------------------------------

molecular dipole:
                 x           y           z       tot (Debye)
 q only:       11.457       0.715       6.222
   full:       11.030       0.923       6.029      32.037

 projected vibrational frequencies (cm⁻¹)
eigval :       -0.00    -0.00    -0.00    -0.00     0.00     0.00
eigval :      -25.13    57.79    62.17    66.52    84.69   125.87
eigval :      191.56   206.40   220.00   311.61   353.17   375.13
eigval :      383.77   461.43   476.78   496.90   535.05   574.89
eigval :      585.95   616.57   649.31   659.39   737.43   743.05
eigval :      767.61   814.76   832.82   844.93   852.08   864.43
eigval :      892.26   908.82   909.52   911.48   922.83   969.40
eigval :      978.15  1079.20  1081.17  1113.76  1122.19  1176.33
eigval :     1176.75  1195.01  1199.62  1264.56  1274.11  1293.40
eigval :     1329.59  1337.41  1390.98  1440.81  1450.12  1479.51
eigval :     1491.82  1515.46  1543.42  1546.36  1591.41  1615.93
eigval :     2668.98  3007.68  3010.21  3024.39  3026.76  3027.90
eigval :     3031.54  3051.82  3053.81  3065.97  3068.96  3622.49

   temp. (K)  partition function   enthalpy   heat capacity  entropy
                                   cal/mol     cal/K/mol   cal/K/mol   J/K/mol
 298.15  VIB  0.883E+04             6198.431     42.448     37.796
         ROT  0.213E+07              888.752      2.981     31.936
         INT  0.188E+11             7087.183     45.429     69.732
         TR   0.246E+28             1481.254      4.968     41.553
         TOT                        8568.4370    50.3974   111.2843   465.6136

       T/K    H(0)-H(T)+PV         H(T)/Eh          T*S/Eh         G(T)/Eh
   ------------------------------------------------------------------------
    298.15    0.136547E-01    0.213710E+00    0.528748E-01    0.160835E+00
   ------------------------------------------------------------------------

         :::::::::::::::::::::::::::::::::::::::::::::::::::::
         ::                  THERMODYNAMIC                  ::
         :::::::::::::::::::::::::::::::::::::::::::::::::::::
         :: total free energy         -38.902897161890 Eh   ::
         ::.................................................::
         :: total energy              -39.063732073757 Eh   ::
         :: zero point energy           0.200055005000 Eh   ::
         :: G(RRHO) w/o ZPVE           -0.039220093133 Eh   ::
         :: G(RRHO) contrib.            0.160834911867 Eh   ::
         :::::::::::::::::::::::::::::::::::::::::::::::::::::

           -------------------------------------------------
          | TOTAL ENERGY              -39.063732073757 Eh   |
          | TOTAL ENTHALPY            -38.850022395194 Eh   |
          | TOTAL FREE ENERGY         -38.902897161890 Eh   |
          | GRADIENT NORM               0.000755452186 Eh/α |
          | HOMO-LUMO GAP               2.874185733770 eV   |
           -------------------------------------------------

 * finished run on 2025/10/17 at 22:00:05.531
normal termination of xtb
