   * xtb version 6.7.1 (edcfbbe) compiled by 'albert@albert-system' on 2024-07-22

   ID    Z sym.   atoms
    1    7 N      1
    2    6 C      2
    3    8 O      3
    4    1 H      4, 5

          program call               : xtb tb_lite_results_shiftn0p3_gp19_b0_rot90_complex.xyz --ohess --chrg -1 --alpb water
      * Solvation model:               ALPB
        Solvent                        water
        Solvent mass                       1.8000E+01 g/mol
          :  Hamiltonian                  GFN2-xTB          :
 * total energy  :   -10.2583366 Eh     change       -0.1484857E-10 Eh
 * total energy  :   -10.3313525 Eh     change       -0.7301594E-01 Eh
 * total energy  :   -10.3273754 Eh     change        0.3977135E-02 Eh
 * total energy  :   -10.3348349 Eh     change       -0.7459448E-02 Eh
 * total energy  :   -10.3351843 Eh     change       -0.3494730E-03 Eh
 * total energy  :   -10.3358038 Eh     change       -0.6194812E-03 Eh
 * total energy  :   -10.3359899 Eh     change       -0.1861160E-03 Eh
 * total energy  :   -10.3360729 Eh     change       -0.8301208E-04 Eh
 * total energy  :   -10.3361030 Eh     change       -0.3004464E-04 Eh
 * total energy  :   -10.3361097 Eh     change       -0.6727291E-05 Eh
 * total energy  :   -10.3361130 Eh     change       -0.3266963E-05 Eh
 * total energy  :   -10.3361164 Eh     change       -0.3430080E-05 Eh
 * total energy  :   -10.3361186 Eh     change       -0.2199533E-05 Eh
   *** GEOMETRY OPTIMIZATION CONVERGED AFTER 13 ITERATIONS ***

 final structure:
================
5
 xtb: 6.7.1 (edcfbbe)
N           -4.97751108559198       -1.49350121558445       -2.46913416383327
C           -5.21072022351642       -2.63500409172672       -2.69007273959377
O           -4.52209038826277        0.93944749556670       -2.14892538817543
H           -4.72370131750860       -0.11748335555254       -2.31151940210804
H           -4.30291248379744        0.98838126387790       -1.21437346007301

          :  Hamiltonian                  GFN2-xTB          :
         :: gradient norm              0.000564736994 Eh/a0 ::
         :: HOMO-LUMO gap              4.691271518964 eV    ::
         :: SCC energy               -10.435193362167 Eh    ::
         :: -> dispersion             -0.001450684243 Eh    ::
         :: -> Gsolv                  -0.113435296500 Eh    ::
         :: repulsion energy           0.099074761318 Eh    ::

    * Orbital Energies and Occupations

         #    Occupation            Energy/Eh            Energy/eV
      -------------------------------------------------------------
         1        2.0000           -0.6287786             -17.1099
         2        2.0000           -0.5560288             -15.1303
         3        2.0000           -0.5052556             -13.7487
         4        2.0000           -0.4665267             -12.6948
         5        2.0000           -0.4093539             -11.1391
         6        2.0000           -0.3911601             -10.6440
         7        2.0000           -0.3722403             -10.1292
         8        2.0000           -0.3720717             -10.1246
         9        2.0000           -0.2925264              -7.9600 (HOMO)
        10                         -0.1201253              -3.2688 (LUMO)
        11                         -0.1198937              -3.2625
        12                          0.1224573               3.3322
        13                          0.2648495               7.2069
        14                          0.8961599              24.3858
      -------------------------------------------------------------
                  HL-Gap            0.1724011 Eh            4.6913 eV

     #   Z          covCN         q      C6AA      α(0)
     1   7 N        1.250    -0.500    31.588     7.986
     2   6 C        0.910    -0.286    45.381    11.274
     3   8 O        1.560    -0.779    29.943     7.383
     4   1 H        1.095     0.269     0.803     1.399
     5   1 H        0.805     0.295     0.735     1.347

Wiberg/Mayer (AO) data.
largest (>0.10) Wiberg bond orders for each atom

     #   Z sym  total        # sym  WBO       # sym  WBO       # sym  WBO
 ---------------------------------------------------------------------------
     1   7 N    3.136 --     2 C    2.785     4 H    0.254
     2   6 C    2.827 --     1 N    2.785
     3   8 O    1.680 --     5 H    0.911     4 H    0.653
     4   1 H    0.928 --     3 O    0.653     1 N    0.254
     5   1 H    0.913 --     3 O    0.911
 ---------------------------------------------------------------------------

molecular dipole:
                 x           y           z       tot (Debye)
 q only:        9.367       1.943       5.094
   full:        9.420       2.029       5.264      27.908

 projected vibrational frequencies (cm⁻¹)
eigval :       -0.00     0.00     0.00     0.00     0.00     0.00
eigval :      131.97   133.51   274.84   633.87   990.63  1132.40
eigval :     1506.28  2145.06  3636.34

   temp. (K)  partition function   enthalpy   heat capacity  entropy
                                   cal/mol     cal/K/mol   cal/K/mol   J/K/mol
 298.15  VIB   6.47                 1259.911      7.206      7.924
         ROT  0.740E+04              888.752      2.981     20.686
         INT  0.479E+05             2148.664     10.187     28.610
         TR   0.283E+27             1481.254      4.968     37.256
         TOT                        3629.9177    15.1549    65.8659   275.5829

       T/K    H(0)-H(T)+PV         H(T)/Eh          T*S/Eh         G(T)/Eh
   ------------------------------------------------------------------------
    298.15    0.578464E-02    0.298988E-01    0.312950E-01   -0.139617E-02
   ------------------------------------------------------------------------

         :::::::::::::::::::::::::::::::::::::::::::::::::::::
         ::                  THERMODYNAMIC                  ::
         :::::::::::::::::::::::::::::::::::::::::::::::::::::
         :: total free energy         -10.337514767939 Eh   ::
         ::.................................................::
         :: total energy              -10.336118600693 Eh   ::
         :: zero point energy           0.024114200821 Eh   ::
         :: G(RRHO) w/o ZPVE           -0.025510368067 Eh   ::
         :: G(RRHO) contrib.           -0.001396167246 Eh   ::
         :::::::::::::::::::::::::::::::::::::::::::::::::::::

           -------------------------------------------------
          | TOTAL ENERGY              -10.336118600693 Eh   |
          | TOTAL ENTHALPY            -10.306219757765 Eh   |
          | TOTAL FREE ENERGY         -10.337514767939 Eh   |
          | GRADIENT NORM               0.000564750541 Eh/α |
          | HOMO-LUMO GAP               4.691272277500 eV   |
           -------------------------------------------------

 * finished run on 2025/10/17 at 21:03:32.363
normal termination of xtb
