   * xtb version 6.7.1 (edcfbbe) compiled by 'albert@albert-system' on 2024-07-22

   ID    Z sym.   atoms
    1    7 N      1
    2    6 C      2
    3    8 O      3
    4    1 H      4, 5

          program call               : xtb tb_lite_results_shiftn0p3_gp2_b0_rot180_complex.xyz --ohess --chrg -1 --alpb water
      * Solvation model:               ALPB
        Solvent                        water
        Solvent mass                       1.8000E+01 g/mol
          :  Hamiltonian                  GFN2-xTB          :
 * total energy  :   -10.2582605 Eh     change       -0.1673683E-10 Eh
 * total energy  :   -10.3312434 Eh     change       -0.7298298E-01 Eh
 * total energy  :   -10.3268205 Eh     change        0.4422930E-02 Eh
 * total energy  :   -10.3347813 Eh     change       -0.7960769E-02 Eh
 * total energy  :   -10.3351399 Eh     change       -0.3586083E-03 Eh
 * total energy  :   -10.3358013 Eh     change       -0.6614109E-03 Eh
 * total energy  :   -10.3359976 Eh     change       -0.1962953E-03 Eh
 * total energy  :   -10.3360779 Eh     change       -0.8031641E-04 Eh
 * total energy  :   -10.3361090 Eh     change       -0.3111998E-04 Eh
 * total energy  :   -10.3361158 Eh     change       -0.6758352E-05 Eh
 * total energy  :   -10.3361185 Eh     change       -0.2689757E-05 Eh
 * total energy  :   -10.3361203 Eh     change       -0.1773947E-05 Eh
 * total energy  :   -10.3361236 Eh     change       -0.3307116E-05 Eh
   *** GEOMETRY OPTIMIZATION CONVERGED AFTER 13 ITERATIONS ***

 final structure:
================
5
 xtb: 6.7.1 (edcfbbe)
N           -5.13405254312796       -1.47094591012300       -2.60512712999032
C           -5.14106112551204       -2.65652126826268       -2.62503140175840
O           -4.94972665438509        1.01892581569760       -2.59581700293648
H           -5.00736604923851       -0.06693544692257       -2.59975772939357
H           -5.86874375581503        1.29896220571546       -2.56172180042096

          :  Hamiltonian                  GFN2-xTB          :
         :: gradient norm              0.000731485369 Eh/a0 ::
         :: HOMO-LUMO gap              4.691100009600 eV    ::
         :: SCC energy               -10.435240894222 Eh    ::
         :: -> dispersion             -0.001450335353 Eh    ::
         :: -> Gsolv                  -0.113523056645 Eh    ::
         :: repulsion energy           0.099117329830 Eh    ::

    * Orbital Energies and Occupations

         #    Occupation            Energy/Eh            Energy/eV
      -------------------------------------------------------------
         1        2.0000           -0.6288582             -17.1121
         2        2.0000           -0.5558347             -15.1250
         3        2.0000           -0.5055088             -13.7556
         4        2.0000           -0.4663376             -12.6897
         5        2.0000           -0.4092851             -11.1372
         6        2.0000           -0.3912753             -10.6471
         7        2.0000           -0.3720046             -10.1228
         8        2.0000           -0.3718508             -10.1186
         9        2.0000           -0.2922924              -7.9537 (HOMO)
        10                         -0.1198976              -3.2626 (LUMO)
        11                         -0.1196391              -3.2555
        12                          0.1221874               3.3249
        13                          0.2652401               7.2176
        14                          0.8962590              24.3884
      -------------------------------------------------------------
                  HL-Gap            0.1723948 Eh            4.6911 eV

     #   Z          covCN         q      C6AA      α(0)
     1   7 N        1.246    -0.501    31.614     7.989
     2   6 C        0.910    -0.286    45.394    11.275
     3   8 O        1.561    -0.778    29.929     7.381
     4   1 H        1.091     0.269     0.802     1.399
     5   1 H        0.805     0.296     0.733     1.345

Wiberg/Mayer (AO) data.
largest (>0.10) Wiberg bond orders for each atom

     #   Z sym  total        # sym  WBO       # sym  WBO       # sym  WBO
 ---------------------------------------------------------------------------
     1   7 N    3.134 --     2 C    2.785     4 H    0.252
     2   6 C    2.827 --     1 N    2.785
     3   8 O    1.680 --     5 H    0.911     4 H    0.654
     4   1 H    0.927 --     3 O    0.654     1 N    0.252
     5   1 H    0.912 --     3 O    0.911
 ---------------------------------------------------------------------------

molecular dipole:
                 x           y           z       tot (Debye)
 q only:        9.088       2.022       4.947
   full:        8.937       2.147       4.954      26.539

 projected vibrational frequencies (cm⁻¹)
eigval :       -0.00    -0.00    -0.00     0.00     0.00     0.00
eigval :      114.50   116.72   277.66   633.42   996.05  1146.04
eigval :     1503.64  2144.76  3631.20

   temp. (K)  partition function   enthalpy   heat capacity  entropy
                                   cal/mol     cal/K/mol   cal/K/mol   J/K/mol
 298.15  VIB   7.88                 1295.836      7.190      8.417
         ROT  0.741E+04              888.752      2.981     20.689
         INT  0.584E+05             2184.588     10.171     29.106
         TR   0.283E+27             1481.254      4.968     37.256
         TOT                        3665.8418    15.1394    66.3621   277.6592

       T/K    H(0)-H(T)+PV         H(T)/Eh          T*S/Eh         G(T)/Eh
   ------------------------------------------------------------------------
    298.15    0.584189E-02    0.299084E-01    0.315308E-01   -0.162237E-02
   ------------------------------------------------------------------------

         :::::::::::::::::::::::::::::::::::::::::::::::::::::
         ::                  THERMODYNAMIC                  ::
         :::::::::::::::::::::::::::::::::::::::::::::::::::::
         :: total free energy         -10.337745933362 Eh   ::
         ::.................................................::
         :: total energy              -10.336123566168 Eh   ::
         :: zero point energy           0.024066536233 Eh   ::
         :: G(RRHO) w/o ZPVE           -0.025688903428 Eh   ::
         :: G(RRHO) contrib.           -0.001622367194 Eh   ::
         :::::::::::::::::::::::::::::::::::::::::::::::::::::

           -------------------------------------------------
          | TOTAL ENERGY              -10.336123566168 Eh   |
          | TOTAL ENTHALPY            -10.306215139166 Eh   |
          | TOTAL FREE ENERGY         -10.337745933362 Eh   |
          | GRADIENT NORM               0.000731649184 Eh/α |
          | HOMO-LUMO GAP               4.691100880754 eV   |
           -------------------------------------------------

 * finished run on 2025/10/17 at 21:03:33.379
normal termination of xtb
