   * xtb version 6.7.1 (edcfbbe) compiled by 'albert@albert-system' on 2024-07-22

   ID    Z sym.   atoms
    1    7 N      1
    2    6 C      2
    3    8 O      3
    4    1 H      4, 5

          program call               : xtb tb_lite_results_shiftn0p3_gp19_b0_rot180_complex.xyz --ohess --chrg -1 --alpb water
      * Solvation model:               ALPB
        Solvent                        water
        Solvent mass                       1.8000E+01 g/mol
          :  Hamiltonian                  GFN2-xTB          :
 * total energy  :   -10.2584088 Eh     change       -0.1082512E-10 Eh
 * total energy  :   -10.3313807 Eh     change       -0.7297187E-01 Eh
 * total energy  :   -10.3273629 Eh     change        0.4017773E-02 Eh
 * total energy  :   -10.3348822 Eh     change       -0.7519279E-02 Eh
 * total energy  :   -10.3352299 Eh     change       -0.3477528E-03 Eh
 * total energy  :   -10.3358155 Eh     change       -0.5855474E-03 Eh
 * total energy  :   -10.3360126 Eh     change       -0.1970731E-03 Eh
 * total energy  :   -10.3360879 Eh     change       -0.7530266E-04 Eh
 * total energy  :   -10.3361107 Eh     change       -0.2283369E-04 Eh
 * total energy  :   -10.3361195 Eh     change       -0.8770901E-05 Eh
 * total energy  :   -10.3361258 Eh     change       -0.6348537E-05 Eh
 * total energy  :   -10.3361313 Eh     change       -0.5541854E-05 Eh
 * total energy  :   -10.3361341 Eh     change       -0.2772090E-05 Eh
   *** GEOMETRY OPTIMIZATION CONVERGED AFTER 13 ITERATIONS ***

 final structure:
================
5
 xtb: 6.7.1 (edcfbbe)
N           -5.00487694771945       -1.47620973943520       -2.49226378035636
C           -5.21041270776299       -2.62924129784227       -2.67743523497040
O           -4.51778257647653        0.94821125835738       -2.16661752204851
H           -4.70629409134345       -0.11595912070570       -2.31547178894336
H           -5.36384135500127        1.29089904037801       -1.86701393457182

          :  Hamiltonian                  GFN2-xTB          :
         :: gradient norm              0.000651432292 Eh/a0 ::
         :: HOMO-LUMO gap              4.694263328275 eV    ::
         :: SCC energy               -10.435208100787 Eh    ::
         :: -> dispersion             -0.001451253367 Eh    ::
         :: -> Gsolv                  -0.113309655276 Eh    ::
         :: repulsion energy           0.099073980604 Eh    ::

    * Orbital Energies and Occupations

         #    Occupation            Energy/Eh            Energy/eV
      -------------------------------------------------------------
         1        2.0000           -0.6282981             -17.0969
         2        2.0000           -0.5566023             -15.1459
         3        2.0000           -0.5049140             -13.7394
         4        2.0000           -0.4662216             -12.6865
         5        2.0000           -0.4094284             -11.1411
         6        2.0000           -0.3905925             -10.6286
         7        2.0000           -0.3729600             -10.1488
         8        2.0000           -0.3727245             -10.1423
         9        2.0000           -0.2931185              -7.9762 (HOMO)
        10                         -0.1206074              -3.2819 (LUMO)
        11                         -0.1204704              -3.2782
        12                          0.1218255               3.3150
        13                          0.2648338               7.2065
        14                          0.8970915              24.4111
      -------------------------------------------------------------
                  HL-Gap            0.1725110 Eh            4.6943 eV

     #   Z          covCN         q      C6AA      α(0)
     1   7 N        1.261    -0.498    31.508     7.977
     2   6 C        0.910    -0.285    45.343    11.269
     3   8 O        1.558    -0.781    30.000     7.390
     4   1 H        1.103     0.269     0.805     1.401
     5   1 H        0.805     0.294     0.738     1.350

Wiberg/Mayer (AO) data.
largest (>0.10) Wiberg bond orders for each atom

     #   Z sym  total        # sym  WBO       # sym  WBO       # sym  WBO
 ---------------------------------------------------------------------------
     1   7 N    3.141 --     2 C    2.785     4 H    0.258
     2   6 C    2.827 --     1 N    2.785
     3   8 O    1.677 --     5 H    0.912     4 H    0.649
     4   1 H    0.928 --     3 O    0.649     1 N    0.258
     5   1 H    0.913 --     3 O    0.912
 ---------------------------------------------------------------------------

molecular dipole:
                 x           y           z       tot (Debye)
 q only:        8.802       2.062       4.766
   full:        8.677       2.201       4.829      25.852

 projected vibrational frequencies (cm⁻¹)
eigval :       -0.00    -0.00     0.00     0.00     0.00     0.00
eigval :      111.92   135.37   272.84   635.62  1004.85  1097.76
eigval :     1506.78  2144.55  3644.03

   temp. (K)  partition function   enthalpy   heat capacity  entropy
                                   cal/mol     cal/K/mol   cal/K/mol   J/K/mol
 298.15  VIB   7.26                 1282.791      7.218      8.217
         ROT  0.738E+04              888.752      2.981     20.681
         INT  0.536E+05             2171.544     10.199     28.898
         TR   0.283E+27             1481.254      4.968     37.256
         TOT                        3652.7975    15.1674    66.1539   276.7880

       T/K    H(0)-H(T)+PV         H(T)/Eh          T*S/Eh         G(T)/Eh
   ------------------------------------------------------------------------
    298.15    0.582110E-02    0.298642E-01    0.314319E-01   -0.156764E-02
   ------------------------------------------------------------------------

         :::::::::::::::::::::::::::::::::::::::::::::::::::::
         ::                  THERMODYNAMIC                  ::
         :::::::::::::::::::::::::::::::::::::::::::::::::::::
         :: total free energy         -10.337701767188 Eh   ::
         ::.................................................::
         :: total energy              -10.336134122595 Eh   ::
         :: zero point energy           0.024043114758 Eh   ::
         :: G(RRHO) w/o ZPVE           -0.025610759351 Eh   ::
         :: G(RRHO) contrib.           -0.001567644593 Eh   ::
         :::::::::::::::::::::::::::::::::::::::::::::::::::::

           -------------------------------------------------
          | TOTAL ENERGY              -10.336134122595 Eh   |
          | TOTAL ENTHALPY            -10.306269904570 Eh   |
          | TOTAL FREE ENERGY         -10.337701767188 Eh   |
          | GRADIENT NORM               0.000651015167 Eh/α |
          | HOMO-LUMO GAP               4.694264579027 eV   |
           -------------------------------------------------

 * finished run on 2025/10/17 at 21:03:34.249
normal termination of xtb
