   * xtb version 6.7.1 (edcfbbe) compiled by 'albert@albert-system' on 2024-07-22

   ID    Z sym.   atoms
    1    7 N      1
    2    6 C      2
    3    8 O      3
    4    1 H      4, 5

          program call               : xtb tb_lite_results_shiftn0p3_gp19_b0_rot0_complex.xyz --ohess --chrg -1 --alpb water
      * Solvation model:               ALPB
        Solvent                        water
        Solvent mass                       1.8000E+01 g/mol
          :  Hamiltonian                  GFN2-xTB          :
 * total energy  :   -10.2584727 Eh     change       -0.1094413E-10 Eh
 * total energy  :   -10.3314088 Eh     change       -0.7293614E-01 Eh
 * total energy  :   -10.3273777 Eh     change        0.4031186E-02 Eh
 * total energy  :   -10.3348978 Eh     change       -0.7520112E-02 Eh
 * total energy  :   -10.3352448 Eh     change       -0.3469854E-03 Eh
 * total energy  :   -10.3358135 Eh     change       -0.5687827E-03 Eh
 * total energy  :   -10.3360039 Eh     change       -0.1903573E-03 Eh
 * total energy  :   -10.3360772 Eh     change       -0.7328165E-04 Eh
 * total energy  :   -10.3361104 Eh     change       -0.3326271E-04 Eh
 * total energy  :   -10.3361194 Eh     change       -0.8992540E-05 Eh
 * total energy  :   -10.3361274 Eh     change       -0.7962519E-05 Eh
 * total energy  :   -10.3361338 Eh     change       -0.6379052E-05 Eh
 * total energy  :   -10.3361365 Eh     change       -0.2698454E-05 Eh
   *** GEOMETRY OPTIMIZATION CONVERGED AFTER 13 ITERATIONS ***

 final structure:
================
5
 xtb: 6.7.1 (edcfbbe)
N           -4.96108800127139       -1.47845089458155       -2.50373116160013
C           -5.20879353645268       -2.62481907739616       -2.67643708508463
O           -4.52465060861982        0.94976985511696       -2.14422429092154
H           -4.73953126977996       -0.11073993003257       -2.29619855066728
H           -3.57980429235067        1.01670084616832       -2.30469191948230

          :  Hamiltonian                  GFN2-xTB          :
         :: gradient norm              0.000301800548 Eh/a0 ::
         :: HOMO-LUMO gap              4.696396065724 eV    ::
         :: SCC energy               -10.435297490885 Eh    ::
         :: -> dispersion             -0.001451610137 Eh    ::
         :: -> Gsolv                  -0.113255100579 Eh    ::
         :: repulsion energy           0.099161019523 Eh    ::

    * Orbital Energies and Occupations

         #    Occupation            Energy/Eh            Energy/eV
      -------------------------------------------------------------
         1        2.0000           -0.6280244             -17.0894
         2        2.0000           -0.5569575             -15.1556
         3        2.0000           -0.5046738             -13.7329
         4        2.0000           -0.4661046             -12.6834
         5        2.0000           -0.4094936             -11.1429
         6        2.0000           -0.3902662             -10.6197
         7        2.0000           -0.3733893             -10.1604
         8        2.0000           -0.3731555             -10.1541
         9        2.0000           -0.2934500              -7.9852 (HOMO)
        10                         -0.1208606              -3.2888 (LUMO)
        11                         -0.1207110              -3.2847
        12                          0.1215592               3.3078
        13                          0.2645348               7.1984
        14                          0.8983829              24.4462
      -------------------------------------------------------------
                  HL-Gap            0.1725894 Eh            4.6964 eV

     #   Z          covCN         q      C6AA      α(0)
     1   7 N        1.269    -0.496    31.459     7.971
     2   6 C        0.910    -0.284    45.319    11.266
     3   8 O        1.556    -0.782    30.039     7.395
     4   1 H        1.109     0.268     0.806     1.402
     5   1 H        0.805     0.294     0.740     1.351

Wiberg/Mayer (AO) data.
largest (>0.10) Wiberg bond orders for each atom

     #   Z sym  total        # sym  WBO       # sym  WBO       # sym  WBO
 ---------------------------------------------------------------------------
     1   7 N    3.144 --     2 C    2.785     4 H    0.261
     2   6 C    2.827 --     1 N    2.785
     3   8 O    1.676 --     5 H    0.912     4 H    0.646
     4   1 H    0.928 --     3 O    0.646     1 N    0.261
     5   1 H    0.914 --     3 O    0.912
 ---------------------------------------------------------------------------

molecular dipole:
                 x           y           z       tot (Debye)
 q only:        9.742       1.899       4.508
   full:        9.916       1.994       4.495      28.133

 projected vibrational frequencies (cm⁻¹)
eigval :       -0.00    -0.00    -0.00     0.00     0.00     0.00
eigval :      108.77   126.11   264.79   627.53   999.76  1074.60
eigval :     1495.29  2145.86  3642.97

   temp. (K)  partition function   enthalpy   heat capacity  entropy
                                   cal/mol     cal/K/mol   cal/K/mol   J/K/mol
 298.15  VIB   7.94                 1308.419      7.280      8.474
         ROT  0.737E+04              888.752      2.981     20.677
         INT  0.585E+05             2197.172     10.261     29.152
         TR   0.283E+27             1481.254      4.968     37.256
         TOT                        3678.4257    15.2288    66.4078   277.8503

       T/K    H(0)-H(T)+PV         H(T)/Eh          T*S/Eh         G(T)/Eh
   ------------------------------------------------------------------------
    298.15    0.586194E-02    0.297501E-01    0.315525E-01   -0.180242E-02
   ------------------------------------------------------------------------

         :::::::::::::::::::::::::::::::::::::::::::::::::::::
         ::                  THERMODYNAMIC                  ::
         :::::::::::::::::::::::::::::::::::::::::::::::::::::
         :: total free energy         -10.337938894721 Eh   ::
         ::.................................................::
         :: total energy              -10.336136471136 Eh   ::
         :: zero point energy           0.023888123937 Eh   ::
         :: G(RRHO) w/o ZPVE           -0.025690547522 Eh   ::
         :: G(RRHO) contrib.           -0.001802423585 Eh   ::
         :::::::::::::::::::::::::::::::::::::::::::::::::::::

           -------------------------------------------------
          | TOTAL ENERGY              -10.336136471136 Eh   |
          | TOTAL ENTHALPY            -10.306386402639 Eh   |
          | TOTAL FREE ENERGY         -10.337938894721 Eh   |
          | GRADIENT NORM               0.000301790638 Eh/α |
          | HOMO-LUMO GAP               4.696396260460 eV   |
           -------------------------------------------------

 * finished run on 2025/10/17 at 21:03:35.935
normal termination of xtb
