   * xtb version 6.7.1 (edcfbbe) compiled by 'albert@albert-system' on 2024-07-22

   ID    Z sym.   atoms
    1    7 N      1
    2    6 C      2
    3    8 O      3
    4    1 H      4, 5

          program call               : xtb tb_lite_results_shiftn0p3_gp21_b0_rot270_complex.xyz --ohess --chrg -1 --alpb water
      * Solvation model:               ALPB
        Solvent                        water
        Solvent mass                       1.8000E+01 g/mol
          :  Hamiltonian                  GFN2-xTB          :
 * total energy  :   -10.2582311 Eh     change       -0.2068923E-10 Eh
 * total energy  :   -10.3312149 Eh     change       -0.7298378E-01 Eh
 * total energy  :   -10.3273410 Eh     change        0.3873865E-02 Eh
 * total energy  :   -10.3347558 Eh     change       -0.7414805E-02 Eh
 * total energy  :   -10.3351176 Eh     change       -0.3617728E-03 Eh
 * total energy  :   -10.3358420 Eh     change       -0.7244487E-03 Eh
 * total energy  :   -10.3360021 Eh     change       -0.1600623E-03 Eh
 * total energy  :   -10.3360779 Eh     change       -0.7578527E-04 Eh
 * total energy  :   -10.3361112 Eh     change       -0.3336619E-04 Eh
 * total energy  :   -10.3361154 Eh     change       -0.4217736E-05 Eh
   *** GEOMETRY OPTIMIZATION CONVERGED AFTER 10 ITERATIONS ***

 final structure:
================
5
 xtb: 6.7.1 (edcfbbe)
N           -4.98950544763867       -1.50487464818210       -2.76132575764193
C           -5.21353640362235       -2.65063619763116       -2.55165793213978
O           -4.50946199222388        0.93529056982686       -3.00690377411597
H           -4.72272387024039       -0.11823559619997       -2.88023168339456
H           -4.30170778495191        1.02029596876727       -3.94076582792375

          :  Hamiltonian                  GFN2-xTB          :
         :: gradient norm              0.000674335098 Eh/a0 ::
         :: HOMO-LUMO gap              4.686661243572 eV    ::
         :: SCC energy               -10.435394268831 Eh    ::
         :: -> dispersion             -0.001449727142 Eh    ::
         :: -> Gsolv                  -0.113731887514 Eh    ::
         :: repulsion energy           0.099278819957 Eh    ::

    * Orbital Energies and Occupations

         #    Occupation            Energy/Eh            Energy/eV
      -------------------------------------------------------------
         1        2.0000           -0.6296905             -17.1348
         2        2.0000           -0.5548719             -15.0988
         3        2.0000           -0.5062948             -13.7770
         4        2.0000           -0.4665955             -12.6967
         5        2.0000           -0.4090452             -11.1307
         6        2.0000           -0.3921720             -10.6715
         7        2.0000           -0.3708369             -10.0910
         8        2.0000           -0.3707095             -10.0875
         9        2.0000           -0.2912936              -7.9265 (HOMO)
        10                         -0.1190620              -3.2398 (LUMO)
        11                         -0.1187751              -3.2320
        12                          0.1238869               3.3711
        13                          0.2678334               7.2881
        14                          0.8943731              24.3371
      -------------------------------------------------------------
                  HL-Gap            0.1722316 Eh            4.6867 eV

     #   Z          covCN         q      C6AA      α(0)
     1   7 N        1.228    -0.506    31.768     8.009
     2   6 C        0.910    -0.288    45.460    11.283
     3   8 O        1.565    -0.775    29.835     7.370
     4   1 H        1.077     0.271     0.798     1.395
     5   1 H        0.805     0.298     0.728     1.340

Wiberg/Mayer (AO) data.
largest (>0.10) Wiberg bond orders for each atom

     #   Z sym  total        # sym  WBO       # sym  WBO       # sym  WBO
 ---------------------------------------------------------------------------
     1   7 N    3.126 --     2 C    2.786     4 H    0.245
     2   6 C    2.827 --     1 N    2.786
     3   8 O    1.684 --     5 H    0.910     4 H    0.661
     4   1 H    0.927 --     3 O    0.661     1 N    0.245
     5   1 H    0.911 --     3 O    0.910
 ---------------------------------------------------------------------------

molecular dipole:
                 x           y           z       tot (Debye)
 q only:        9.371       2.021       4.740
   full:        9.418       2.106       4.571      27.143

 projected vibrational frequencies (cm⁻¹)
eigval :       -0.00    -0.00    -0.00    -0.00     0.00     0.00
eigval :      129.78   132.97   285.44   622.65   982.36  1207.76
eigval :     1511.86  2144.05  3645.25

   temp. (K)  partition function   enthalpy   heat capacity  entropy
                                   cal/mol     cal/K/mol   cal/K/mol   J/K/mol
 298.15  VIB   6.46                 1254.981      7.166      7.904
         ROT  0.743E+04              888.752      2.981     20.695
         INT  0.480E+05             2143.733     10.146     28.598
         TR   0.283E+27             1481.254      4.968     37.256
         TOT                        3624.9873    15.1146    65.8545   275.5354

       T/K    H(0)-H(T)+PV         H(T)/Eh          T*S/Eh         G(T)/Eh
   ------------------------------------------------------------------------
    298.15    0.577679E-02    0.300669E-01    0.312896E-01   -0.122275E-02
   ------------------------------------------------------------------------

         :::::::::::::::::::::::::::::::::::::::::::::::::::::
         ::                  THERMODYNAMIC                  ::
         :::::::::::::::::::::::::::::::::::::::::::::::::::::
         :: total free energy         -10.337338199596 Eh   ::
         ::.................................................::
         :: total energy              -10.336115449178 Eh   ::
         :: zero point energy           0.024290078998 Eh   ::
         :: G(RRHO) w/o ZPVE           -0.025512829416 Eh   ::
         :: G(RRHO) contrib.           -0.001222750418 Eh   ::
         :::::::::::::::::::::::::::::::::::::::::::::::::::::

           -------------------------------------------------
          | TOTAL ENERGY              -10.336115449178 Eh   |
          | TOTAL ENTHALPY            -10.306048585165 Eh   |
          | TOTAL FREE ENERGY         -10.337338199596 Eh   |
          | GRADIENT NORM               0.000674305756 Eh/α |
          | HOMO-LUMO GAP               4.686661191050 eV   |
           -------------------------------------------------

 * finished run on 2025/10/17 at 21:03:35.119
normal termination of xtb
