   * xtb version 6.7.1 (edcfbbe) compiled by 'albert@albert-system' on 2024-07-22

   ID    Z sym.   atoms
    1    7 N      1
    2    6 C      2

          program call               : xtb tb_lite_results_shiftn0p3_gp21_b0_rot270_solute.xyz --ohess --chrg -1
          :  Hamiltonian                  GFN2-xTB          :
 * total energy  :    -5.0451499 Eh     change       -0.2575717E-12 Eh
 * total energy  :    -5.1112350 Eh     change       -0.6608510E-01 Eh
 * total energy  :    -5.1080609 Eh     change        0.3174046E-02 Eh
 * total energy  :    -5.1135504 Eh     change       -0.5489512E-02 Eh
 * total energy  :    -5.1136174 Eh     change       -0.6700257E-04 Eh
 * total energy  :    -5.1136194 Eh     change       -0.1936422E-05 Eh
   *** GEOMETRY OPTIMIZATION CONVERGED AFTER 6 ITERATIONS ***

 final structure:
================
2
 xtb: 6.7.1 (edcfbbe)
N           -5.00263829943434       -1.58175522479103       -2.58996066463695
C           -5.23782475097407       -2.75730679663666       -2.64504436143629

          :  Hamiltonian                  GFN2-xTB          :
         :: gradient norm              0.000059786832 Eh/a0 ::
         :: HOMO-LUMO gap              4.429620964694 eV    ::
         :: SCC energy                -5.183000006031 Eh    ::
         :: -> dispersion             -0.000475188423 Eh    ::
         :: repulsion energy           0.069380624984 Eh    ::

    * Orbital Energies and Occupations

         #    Occupation            Energy/Eh            Energy/eV
      -------------------------------------------------------------
         1        2.0000           -0.2770926              -7.5401
         2        2.0000           -0.1407320              -3.8295
         3        2.0000           -0.0846992              -2.3048
         4        2.0000           -0.0846992              -2.3048
         5        2.0000           -0.0070309              -0.1913 (HOMO)
         6                          0.1557546               4.2383 (LUMO)
         7                          0.1557546               4.2383
         8                          1.0363326              28.2000
      -------------------------------------------------------------
                  HL-Gap            0.1627856 Eh            4.4296 eV

     #   Z          covCN         q      C6AA      α(0)
     1   7 N        0.910    -0.618    37.175     8.819
     2   6 C        0.910    -0.382    49.512    11.775

Wiberg/Mayer (AO) data.
largest (>0.10) Wiberg bond orders for each atom

     #   Z sym  total        # sym  WBO       # sym  WBO       # sym  WBO
 ---------------------------------------------------------------------------
     1   7 N    2.846 --     2 C    2.846
     2   6 C    2.846 --     1 N    2.846
 ---------------------------------------------------------------------------

molecular dipole:
                 x           y           z       tot (Debye)
 q only:        9.624       3.839       4.934
   full:        9.638       3.910       4.937      29.264

   temp. (K)  partition function   enthalpy   heat capacity  entropy
                                   cal/mol     cal/K/mol   cal/K/mol   J/K/mol
 298.15  VIB   1.00                    0.305      0.010      0.001
         ROT   114.                  592.502      1.987     11.408
         INT   114.                  592.807      1.997     11.409
         TR   0.128E+27             1481.254      4.968     35.688
         TOT                        2074.0604     6.9655    47.0973   197.0549

       T/K    H(0)-H(T)+PV         H(T)/Eh          T*S/Eh         G(T)/Eh
   ------------------------------------------------------------------------
    298.15    0.330523E-02    0.796032E-02    0.223774E-01   -0.144171E-01
   ------------------------------------------------------------------------

         :::::::::::::::::::::::::::::::::::::::::::::::::::::
         ::                  THERMODYNAMIC                  ::
         :::::::::::::::::::::::::::::::::::::::::::::::::::::
         :: total free energy          -5.128036484230 Eh   ::
         ::.................................................::
         :: total energy               -5.113619381047 Eh   ::
         :: zero point energy           0.004655097613 Eh   ::
         :: G(RRHO) w/o ZPVE           -0.019072200796 Eh   ::
         :: G(RRHO) contrib.           -0.014417103183 Eh   ::
         :::::::::::::::::::::::::::::::::::::::::::::::::::::

           -------------------------------------------------
          | TOTAL ENERGY               -5.113619381047 Eh   |
          | TOTAL ENTHALPY             -5.105659057741 Eh   |
          | TOTAL FREE ENERGY          -5.128036484230 Eh   |
          | GRADIENT NORM               0.000059786030 Eh/α |
          | HOMO-LUMO GAP               4.429620949150 eV   |
           -------------------------------------------------

 * finished run on 2025/10/17 at 21:03:35.469
normal termination of xtb
