   * xtb version 6.7.1 (edcfbbe) compiled by 'albert@albert-system' on 2024-07-22

   ID    Z sym.   atoms
    1    6 C      1-3
    2    8 O      4, 10
    3    1 H      5-9, 11, 12

          program call               : xtb tb_lite_results_shiftn0p15_gp282_b0_rot180_complex.xyz --ohess --chrg -1 --alpb water
      * Solvation model:               ALPB
        Solvent                        water
        Solvent mass                       1.8000E+01 g/mol
          :  Hamiltonian                  GFN2-xTB          :
 * total energy  :   -18.3851641 Eh     change       -0.6220802E-10 Eh
 * total energy  :   -18.3883180 Eh     change       -0.3153909E-02 Eh
 * total energy  :   -18.3886672 Eh     change       -0.3491909E-03 Eh
 * total energy  :   -18.3887568 Eh     change       -0.8968163E-04 Eh
 * total energy  :   -18.3888318 Eh     change       -0.7492191E-04 Eh
 * total energy  :   -18.3888537 Eh     change       -0.2190694E-04 Eh
 * total energy  :   -18.3888767 Eh     change       -0.2301753E-04 Eh
 * total energy  :   -18.3888971 Eh     change       -0.2040388E-04 Eh
 * total energy  :   -18.3888869 Eh     change        0.1019805E-04 Eh
 * total energy  :   -18.3889422 Eh     change       -0.5526912E-04 Eh
 * total energy  :   -18.3903613 Eh     change       -0.1409406E-03 Eh
 * total energy  :   -18.3903788 Eh     change       -0.1756180E-04 Eh
 * total energy  :   -18.3903586 Eh     change        0.2024626E-04 Eh
 * total energy  :   -18.3904071 Eh     change       -0.4851225E-04 Eh
 * total energy  :   -18.3904127 Eh     change       -0.5577336E-05 Eh
 * total energy  :   -18.3904090 Eh     change        0.3650970E-05 Eh
 * total energy  :   -18.3904174 Eh     change       -0.8361913E-05 Eh
 * total energy  :   -18.3904220 Eh     change       -0.4661895E-05 Eh
 * total energy  :   -18.3904250 Eh     change       -0.2965047E-05 Eh
   *** GEOMETRY OPTIMIZATION CONVERGED AFTER 49 ITERATIONS ***

 final structure:
================
12
 xtb: 6.7.1 (edcfbbe)
C           -3.78701933179469       -0.75581079573326       -0.71534811279062
C           -2.76031242864880        0.11334346235924       -0.72973792166534
C           -1.39510474507027       -0.34739596397017       -0.22450737493965
O           -2.82218398328928        1.34636670865635       -1.14986672433937
H           -3.66861069006375       -1.76320875079260       -0.35233966143158
H           -4.76858039008107       -0.46700662157439       -1.05614583604812
H           -1.42107564413060       -1.39555181993248        0.05837557793313
H           -0.65175629734807       -0.19395160402426       -1.00597886123016
H           -1.10816393939528        0.25810586309913        0.63465548510549
O           -5.09465835911748        2.16402262667674       -2.12930429205524
H           -4.24130257786614        1.84166186283086       -1.69742780956740
H           -4.83179577763617        2.40775787409576       -3.02324009519685

          :  Hamiltonian                  GFN2-xTB          :
         :: gradient norm              0.000765757625 Eh/a0 ::
         :: HOMO-LUMO gap              4.852318181803 eV    ::
         :: SCC energy               -18.581719237844 Eh    ::
         :: -> dispersion             -0.006039487506 Eh    ::
         :: -> Gsolv                  -0.108727329816 Eh    ::
         :: repulsion energy           0.191294230030 Eh    ::

    * Orbital Energies and Occupations

         #    Occupation            Energy/Eh            Energy/eV
      -------------------------------------------------------------
         1        2.0000           -0.6427107             -17.4890
       ...           ...                  ...                  ...
         4        2.0000           -0.5545787             -15.0909
         5        2.0000           -0.5256271             -14.3030
         6        2.0000           -0.5039847             -13.7141
         7        2.0000           -0.4775176             -12.9939
         8        2.0000           -0.4729915             -12.8708
         9        2.0000           -0.4724799             -12.8568
        10        2.0000           -0.4606364             -12.5346
        11        2.0000           -0.4258822             -11.5888
        12        2.0000           -0.4137280             -11.2581
        13        2.0000           -0.4117531             -11.2044
        14        2.0000           -0.4061069             -11.0507
        15        2.0000           -0.3330136              -9.0618
        16        2.0000           -0.3061777              -8.3315 (HOMO)
        17                         -0.1278582              -3.4792 (LUMO)
        18                          0.1127848               3.0690
        19                          0.1525436               4.1509
        20                          0.1681520               4.5756
        21                          0.1992803               5.4227
        22                          0.2240520               6.0968
        23                          0.2335700               6.3558
        24                          0.2837018               7.7199
        25                          0.3031393               8.2488
        26                          0.4893110              13.3148
        27                          0.6460103              17.5788
      -------------------------------------------------------------
                  HL-Gap            0.1783194 Eh            4.8523 eV

     #   Z          covCN         q      C6AA      α(0)
     1   6 C        2.839    -0.199    33.244     9.449
     2   6 C        2.810     0.145    24.831     8.164
     3   6 C        3.755    -0.109    22.642     6.785
     4   8 O        0.859    -0.734    29.666     7.303
     5   1 H        0.926    -0.041     3.872     3.077
     6   1 H        0.926    -0.035     3.742     3.025
     7   1 H        0.925     0.018     2.762     2.599
     8   1 H        0.925     0.021     2.714     2.576
     9   1 H        0.925     0.020     2.728     2.583
    10   8 O        1.602    -0.720    28.251     7.173
    11   1 H        0.799     0.299     0.724     1.337
    12   1 H        0.805     0.334     0.628     1.244

Wiberg/Mayer (AO) data.
largest (>0.10) Wiberg bond orders for each atom

     #   Z sym  total        # sym  WBO       # sym  WBO       # sym  WBO
 ---------------------------------------------------------------------------
     1   6 C    3.896 --     2 C    1.699     5 H    0.979     6 H    0.978
                             4 O    0.201
     2   6 C    3.963 --     1 C    1.699     4 O    1.278     3 C    0.979
     3   6 C    3.996 --     7 H    0.989     8 H    0.982     9 H    0.981
                             2 C    0.979
     4   8 O    1.698 --     2 C    1.278     1 C    0.201    11 H    0.109
     5   1 H    0.998 --     1 C    0.979
     6   1 H    0.999 --     1 C    0.978
     7   1 H    0.999 --     3 C    0.989
     8   1 H    1.000 --     3 C    0.982
     9   1 H    1.000 --     3 C    0.981
    10   8 O    1.740 --    12 H    0.888    11 H    0.796
    11   1 H    0.910 --    10 O    0.796     4 O    0.109
    12   1 H    0.889 --    10 O    0.888
 ---------------------------------------------------------------------------

molecular dipole:
                 x           y           z       tot (Debye)
 q only:        6.835      -1.744       1.823
   full:        7.071      -1.926       1.829      19.198

 projected vibrational frequencies (cm⁻¹)
eigval :       -0.00     0.00     0.00     0.00     0.00     0.00
eigval :     -116.28    47.18    79.19    87.69   243.76   431.22
eigval :      496.48   509.94   553.52   658.51   706.44   874.30
eigval :      900.55   994.52  1012.53  1034.28  1280.81  1364.14
eigval :     1412.69  1473.77  1493.93  1534.20  1664.22  2594.54
eigval :     2986.09  3002.92  3027.02  3061.75  3076.41  3600.72

   temp. (K)  partition function   enthalpy   heat capacity  entropy
                                   cal/mol     cal/K/mol   cal/K/mol   J/K/mol
 298.15  VIB   109.                 2688.959     16.416     17.423
         ROT  0.129E+06              888.752      2.981     26.364
         INT  0.141E+08             3577.711     19.397     43.787
         TR   0.630E+27             1481.254      4.968     38.846
         TOT                        5058.9651    24.3647    82.6332   345.7375

       T/K    H(0)-H(T)+PV         H(T)/Eh          T*S/Eh         G(T)/Eh
   ------------------------------------------------------------------------
    298.15    0.806197E-02    0.996519E-01    0.392617E-01    0.603902E-01
   ------------------------------------------------------------------------

         :::::::::::::::::::::::::::::::::::::::::::::::::::::
         ::                  THERMODYNAMIC                  ::
         :::::::::::::::::::::::::::::::::::::::::::::::::::::
         :: total free energy         -18.330034842192 Eh   ::
         ::.................................................::
         :: total energy              -18.390425007516 Eh   ::
         :: zero point energy           0.091589908703 Eh   ::
         :: G(RRHO) w/o ZPVE           -0.031199743379 Eh   ::
         :: G(RRHO) contrib.            0.060390165324 Eh   ::
         :::::::::::::::::::::::::::::::::::::::::::::::::::::

           -------------------------------------------------
          | TOTAL ENERGY              -18.390425007516 Eh   |
          | TOTAL ENTHALPY            -18.290773124797 Eh   |
          | TOTAL FREE ENERGY         -18.330034842192 Eh   |
          | GRADIENT NORM               0.000765642576 Eh/α |
          | HOMO-LUMO GAP               4.852318120150 eV   |
           -------------------------------------------------

 * finished run on 2025/10/18 at 01:53:55.544
normal termination of xtb
