   * xtb version 6.7.1 (edcfbbe) compiled by 'albert@albert-system' on 2024-07-22

   ID    Z sym.   atoms
    1    6 C      1-3
    2    8 O      4
    3    1 H      5-9

          program call               : xtb tb_lite_results_shiftn0p15_gp282_b0_rot180_solute.xyz --ohess --chrg -1
          :  Hamiltonian                  GFN2-xTB          :
 * total energy  :   -13.1885911 Eh     change       -0.7074945E-09 Eh
 * total energy  :   -13.1902429 Eh     change       -0.1651801E-02 Eh
 * total energy  :   -13.1904079 Eh     change       -0.1649970E-03 Eh
 * total energy  :   -13.1904364 Eh     change       -0.2859028E-04 Eh
 * total energy  :   -13.1904327 Eh     change        0.3710426E-05 Eh
 * total energy  :   -13.1904401 Eh     change       -0.7379775E-05 Eh
 * total energy  :   -13.1904407 Eh     change       -0.5382536E-06 Eh
   *** GEOMETRY OPTIMIZATION CONVERGED AFTER 7 ITERATIONS ***

 final structure:
================
9
 xtb: 6.7.1 (edcfbbe)
C           -3.80111142851992       -0.62109354702514       -0.74766049582332
C           -2.71686968336262        0.19298631162033       -0.79532851475894
C           -1.40018451411182       -0.38754463408099       -0.21145903407727
O           -2.65854924329791        1.37205245631194       -1.26148767747380
H           -3.75836138003076       -1.61862132756426       -0.32872775609487
H           -4.76105550581277       -0.30348766847179       -1.12951900848715
H           -1.53244798809521       -1.40285236190055        0.16393185241828
H           -0.62743229387220       -0.39329598283562       -0.98320369757574
H           -1.04839707387367        0.24819073937095        0.60396730843462

          :  Hamiltonian                  GFN2-xTB          :
         :: gradient norm              0.000418240453 Eh/a0 ::
         :: HOMO-LUMO gap              4.760488026354 eV    ::
         :: SCC energy               -13.352238027417 Eh    ::
         :: -> dispersion             -0.004701133381 Eh    ::
         :: repulsion energy           0.161797370396 Eh    ::

    * Orbital Energies and Occupations

         #    Occupation            Energy/Eh            Energy/eV
      -------------------------------------------------------------
         1        2.0000           -0.4154052             -11.3038
         2        2.0000           -0.4017363             -10.9318
         3        2.0000           -0.3593845              -9.7794
         4        2.0000           -0.3140892              -8.5468
         5        2.0000           -0.2983056              -8.1173
         6        2.0000           -0.2940842              -8.0024
         7        2.0000           -0.2733989              -7.4396
         8        2.0000           -0.2339040              -6.3649
         9        2.0000           -0.2192944              -5.9673
        10        2.0000           -0.2180352              -5.9330
        11        2.0000           -0.1225114              -3.3337
        12        2.0000           -0.0999862              -2.7208 (HOMO)
        13                          0.0749584               2.0397 (LUMO)
        14                          0.3008701               8.1871
        15                          0.3416647               9.2972
        16                          0.3718734              10.1192
        17                          0.3920840              10.6691
        18                          0.3953409              10.7578
        19                          0.4900165              13.3340
        20                          0.6914651              18.8157
        21                          0.8503360              23.1388
      -------------------------------------------------------------
                  HL-Gap            0.1749446 Eh            4.7605 eV

     #   Z          covCN         q      C6AA      α(0)
     1   6 C        2.839    -0.220    33.857     9.536
     2   6 C        2.808     0.166    24.410     8.094
     3   6 C        3.752    -0.096    22.395     6.749
     4   8 O        0.857    -0.657    27.574     7.040
     5   1 H        0.925    -0.083     4.992     3.494
     6   1 H        0.926    -0.059     4.331     3.255
     7   1 H        0.924    -0.024     3.519     2.934
     8   1 H        0.924    -0.013     3.294     2.838
     9   1 H        0.924    -0.013     3.296     2.839

Wiberg/Mayer (AO) data.
largest (>0.10) Wiberg bond orders for each atom

     #   Z sym  total        # sym  WBO       # sym  WBO       # sym  WBO
 ---------------------------------------------------------------------------
     1   6 C    3.836 --     2 C    1.612     6 H    0.977     5 H    0.975
                             4 O    0.241
     2   6 C    3.965 --     1 C    1.612     4 O    1.413     3 C    0.937
     3   6 C    3.974 --     7 H    0.989     8 H    0.985     9 H    0.985
                             2 C    0.937
     4   8 O    1.734 --     2 C    1.413     1 C    0.241
     5   1 H    0.993 --     1 C    0.975
     6   1 H    0.996 --     1 C    0.977
     7   1 H    0.999 --     3 C    0.989
     8   1 H    1.000 --     3 C    0.985
     9   1 H    1.000 --     3 C    0.985
 ---------------------------------------------------------------------------

molecular dipole:
                 x           y           z       tot (Debye)
 q only:        5.518      -0.960       1.847
   full:        5.625      -1.265       2.000      15.512

 projected vibrational frequencies (cm⁻¹)
eigval :       -0.00    -0.00    -0.00     0.00     0.00     0.00
eigval :       46.96   420.20   486.46   490.54   580.51   660.89
eigval :      821.37   969.76   981.91  1038.18  1278.02  1352.38
eigval :     1455.30  1499.03  1513.70  1697.82  2953.21  2965.36
eigval :     2972.87  2999.46  3040.67

   temp. (K)  partition function   enthalpy   heat capacity  entropy
                                   cal/mol     cal/K/mol   cal/K/mol   J/K/mol
 298.15  VIB   8.09                 1331.270      9.700      7.866
         ROT  0.383E+05              888.752      2.981     23.953
         INT  0.310E+06             2220.022     12.680     31.818
         TR   0.417E+27             1481.254      4.968     38.029
         TOT                        3701.2760    17.6486    69.8473   292.2411

       T/K    H(0)-H(T)+PV         H(T)/Eh          T*S/Eh         G(T)/Eh
   ------------------------------------------------------------------------
    298.15    0.589836E-02    0.747551E-01    0.331867E-01    0.415684E-01
   ------------------------------------------------------------------------

         :::::::::::::::::::::::::::::::::::::::::::::::::::::
         ::                  THERMODYNAMIC                  ::
         :::::::::::::::::::::::::::::::::::::::::::::::::::::
         :: total free energy         -13.148872303082 Eh   ::
         ::.................................................::
         :: total energy              -13.190440657022 Eh   ::
         :: zero point energy           0.068856699568 Eh   ::
         :: G(RRHO) w/o ZPVE           -0.027288345628 Eh   ::
         :: G(RRHO) contrib.            0.041568353940 Eh   ::
         :::::::::::::::::::::::::::::::::::::::::::::::::::::

           -------------------------------------------------
          | TOTAL ENERGY              -13.190440657022 Eh   |
          | TOTAL ENTHALPY            -13.115685598733 Eh   |
          | TOTAL FREE ENERGY         -13.148872303082 Eh   |
          | GRADIENT NORM               0.000418086289 Eh/α |
          | HOMO-LUMO GAP               4.760486223636 eV   |
           -------------------------------------------------

 * finished run on 2025/10/18 at 01:53:56.077
normal termination of xtb
