   * xtb version 6.7.1 (edcfbbe) compiled by 'albert@albert-system' on 2024-07-22

   ID    Z sym.   atoms
    1    6 C      1-3
    2    8 O      4, 10
    3    1 H      5-9, 11, 12

          program call               : xtb tb_lite_results_shiftn0p2_gp260_b0_rot180_complex.xyz --ohess --chrg -1 --alpb water
      * Solvation model:               ALPB
        Solvent                        water
        Solvent mass                       1.8000E+01 g/mol
          :  Hamiltonian                  GFN2-xTB          :
 * total energy  :   -18.3849791 Eh     change       -0.4284217E-10 Eh
 * total energy  :   -18.3885191 Eh     change       -0.3540009E-02 Eh
 * total energy  :   -18.3888535 Eh     change       -0.3343835E-03 Eh
 * total energy  :   -18.3889229 Eh     change       -0.6936990E-04 Eh
 * total energy  :   -18.3890130 Eh     change       -0.9015664E-04 Eh
 * total energy  :   -18.3890584 Eh     change       -0.4540218E-04 Eh
 * total energy  :   -18.3891188 Eh     change       -0.6032550E-04 Eh
 * total energy  :   -18.3891527 Eh     change       -0.3395229E-04 Eh
 * total energy  :   -18.3892176 Eh     change       -0.6490458E-04 Eh
 * total energy  :   -18.3892716 Eh     change       -0.5394610E-04 Eh
 * total energy  :   -18.3903380 Eh     change       -0.1850925E-04 Eh
 * total energy  :   -18.3903542 Eh     change       -0.1622159E-04 Eh
 * total energy  :   -18.3903922 Eh     change       -0.3801293E-04 Eh
 * total energy  :   -18.3904031 Eh     change       -0.1084757E-04 Eh
 * total energy  :   -18.3904176 Eh     change       -0.1453852E-04 Eh
 * total energy  :   -18.3904278 Eh     change       -0.1018863E-04 Eh
 * total energy  :   -18.3904330 Eh     change       -0.5226169E-05 Eh
 * total energy  :   -18.3904342 Eh     change       -0.1147034E-05 Eh
 * total energy  :   -18.3904371 Eh     change       -0.2916024E-05 Eh
   *** GEOMETRY OPTIMIZATION CONVERGED AFTER 41 ITERATIONS ***

 final structure:
================
12
 xtb: 6.7.1 (edcfbbe)
C           -3.78842805763032       -0.68359464401235       -0.64867425902776
C           -2.66999236072679        0.03203381735664       -0.86429431269050
C           -1.37893657944571       -0.38544619438426       -0.16410454497649
O           -2.58134811812663        1.07722846524080       -1.63975002508364
H           -3.79383712862682       -1.53787583788597        0.00780441724958
H           -4.72217019339913       -0.41632473813237       -1.11734928978973
H           -1.53612082514254       -1.27511080699805        0.43837911115831
H           -0.60946346353367       -0.57682941427674       -0.91120671005134
H           -1.03518533748832        0.43163616616258        0.46936161017183
O           -4.75827855884678        1.82352056970037       -2.85875311150244
H           -3.93932668764421        1.54374778363816       -2.33782528651630
H           -4.47426176193881        1.79908360869982       -3.77881248460758

          :  Hamiltonian                  GFN2-xTB          :
         :: gradient norm              0.000954423297 Eh/a0 ::
         :: HOMO-LUMO gap              4.852802469572 eV    ::
         :: SCC energy               -18.581614211246 Eh    ::
         :: -> dispersion             -0.006044629510 Eh    ::
         :: -> Gsolv                  -0.108799780244 Eh    ::
         :: repulsion energy           0.191177139171 Eh    ::

    * Orbital Energies and Occupations

         #    Occupation            Energy/Eh            Energy/eV
      -------------------------------------------------------------
         1        2.0000           -0.6425375             -17.4843
       ...           ...                  ...                  ...
         4        2.0000           -0.5546032             -15.0915
         5        2.0000           -0.5255312             -14.3004
         6        2.0000           -0.5038970             -13.7117
         7        2.0000           -0.4774237             -12.9914
         8        2.0000           -0.4729968             -12.8709
         9        2.0000           -0.4725189             -12.8579
        10        2.0000           -0.4605381             -12.5319
        11        2.0000           -0.4259201             -11.5899
        12        2.0000           -0.4137552             -11.2589
        13        2.0000           -0.4117814             -11.2051
        14        2.0000           -0.4058413             -11.0435
        15        2.0000           -0.3331320              -9.0650
        16        2.0000           -0.3062705              -8.3340 (HOMO)
        17                         -0.1279330              -3.4812 (LUMO)
        18                          0.1126947               3.0666
        19                          0.1526066               4.1526
        20                          0.1681391               4.5753
        21                          0.1992435               5.4217
        22                          0.2242725               6.1028
        23                          0.2334911               6.3536
        24                          0.2838321               7.7235
        25                          0.3026070               8.2344
        26                          0.4888748              13.3030
        27                          0.6459629              17.5775
      -------------------------------------------------------------
                  HL-Gap            0.1783375 Eh            4.8528 eV

     #   Z          covCN         q      C6AA      α(0)
     1   6 C        2.839    -0.199    33.239     9.448
     2   6 C        2.810     0.145    24.833     8.164
     3   6 C        3.755    -0.109    22.642     6.785
     4   8 O        0.859    -0.734    29.659     7.302
     5   1 H        0.926    -0.041     3.869     3.076
     6   1 H        0.926    -0.034     3.731     3.021
     7   1 H        0.925     0.018     2.761     2.598
     8   1 H        0.925     0.021     2.713     2.576
     9   1 H        0.925     0.020     2.727     2.582
    10   8 O        1.602    -0.721    28.276     7.177
    11   1 H        0.799     0.299     0.724     1.337
    12   1 H        0.805     0.334     0.628     1.245

Wiberg/Mayer (AO) data.
largest (>0.10) Wiberg bond orders for each atom

     #   Z sym  total        # sym  WBO       # sym  WBO       # sym  WBO
 ---------------------------------------------------------------------------
     1   6 C    3.897 --     2 C    1.700     5 H    0.979     6 H    0.977
                             4 O    0.201
     2   6 C    3.963 --     1 C    1.700     4 O    1.277     3 C    0.979
     3   6 C    3.996 --     7 H    0.989     8 H    0.982     9 H    0.981
                             2 C    0.979
     4   8 O    1.699 --     2 C    1.277     1 C    0.201    11 H    0.111
     5   1 H    0.998 --     1 C    0.979
     6   1 H    0.999 --     1 C    0.977
     7   1 H    0.999 --     3 C    0.989
     8   1 H    1.000 --     3 C    0.982
     9   1 H    1.000 --     3 C    0.981
    10   8 O    1.739 --    12 H    0.888    11 H    0.794
    11   1 H    0.910 --    10 O    0.794     4 O    0.111
    12   1 H    0.889 --    10 O    0.888
 ---------------------------------------------------------------------------

molecular dipole:
                 x           y           z       tot (Debye)
 q only:        6.471      -1.532       2.574
   full:        6.683      -1.722       2.638      18.779

 projected vibrational frequencies (cm⁻¹)
eigval :       -0.00    -0.00    -0.00     0.00     0.00     0.00
eigval :     -138.03    43.95    78.70    91.17   245.34   431.91
eigval :      495.85   511.22   559.32   658.13   705.27   871.48
eigval :      888.05   994.39  1012.29  1034.43  1280.43  1364.00
eigval :     1412.24  1473.70  1493.96  1532.19  1664.32  2579.94
eigval :     2986.26  3003.00  3027.57  3061.29  3077.05  3600.41

   temp. (K)  partition function   enthalpy   heat capacity  entropy
                                   cal/mol     cal/K/mol   cal/K/mol   J/K/mol
 298.15  VIB   113.                 2687.717     16.363     17.358
         ROT  0.128E+06              888.752      2.981     26.355
         INT  0.145E+08             3576.469     19.344     43.713
         TR   0.630E+27             1481.254      4.968     38.846
         TOT                        5057.7231    24.3125    82.5595   345.4289

       T/K    H(0)-H(T)+PV         H(T)/Eh          T*S/Eh         G(T)/Eh
   ------------------------------------------------------------------------
    298.15    0.805999E-02    0.995919E-01    0.392267E-01    0.603652E-01
   ------------------------------------------------------------------------

         :::::::::::::::::::::::::::::::::::::::::::::::::::::
         ::                  THERMODYNAMIC                  ::
         :::::::::::::::::::::::::::::::::::::::::::::::::::::
         :: total free energy         -18.330071847554 Eh   ::
         ::.................................................::
         :: total energy              -18.390437072403 Eh   ::
         :: zero point energy           0.091531901822 Eh   ::
         :: G(RRHO) w/o ZPVE           -0.031166676973 Eh   ::
         :: G(RRHO) contrib.            0.060365224850 Eh   ::
         :::::::::::::::::::::::::::::::::::::::::::::::::::::

           -------------------------------------------------
          | TOTAL ENERGY              -18.390437072403 Eh   |
          | TOTAL ENTHALPY            -18.290845175770 Eh   |
          | TOTAL FREE ENERGY         -18.330071847554 Eh   |
          | GRADIENT NORM               0.000954398346 Eh/α |
          | HOMO-LUMO GAP               4.852810311218 eV   |
           -------------------------------------------------

 * finished run on 2025/10/18 at 01:53:59.766
normal termination of xtb
