   * xtb version 6.7.1 (edcfbbe) compiled by 'albert@albert-system' on 2024-07-22

   ID    Z sym.   atoms
    1    6 C      1-3
    2    8 O      4, 10
    3    1 H      5-9, 11, 12

          program call               : xtb tb_lite_results_shiftn0p2_gp282_b0_rot180_complex.xyz --ohess --chrg -1 --alpb water
      * Solvation model:               ALPB
        Solvent                        water
        Solvent mass                       1.8000E+01 g/mol
          :  Hamiltonian                  GFN2-xTB          :
 * total energy  :   -18.3848929 Eh     change       -0.5185541E-10 Eh
 * total energy  :   -18.3883973 Eh     change       -0.3504465E-02 Eh
 * total energy  :   -18.3887215 Eh     change       -0.3241730E-03 Eh
 * total energy  :   -18.3887773 Eh     change       -0.5580208E-04 Eh
 * total energy  :   -18.3888334 Eh     change       -0.5605981E-04 Eh
 * total energy  :   -18.3888603 Eh     change       -0.2690392E-04 Eh
 * total energy  :   -18.3888845 Eh     change       -0.2419339E-04 Eh
 * total energy  :   -18.3889069 Eh     change       -0.2241112E-04 Eh
 * total energy  :   -18.3889389 Eh     change       -0.3200527E-04 Eh
 * total energy  :   -18.3888885 Eh     change        0.5035506E-04 Eh
 * total energy  :   -18.3903180 Eh     change       -0.3288200E-04 Eh
 * total energy  :   -18.3903321 Eh     change       -0.1414494E-04 Eh
 * total energy  :   -18.3903553 Eh     change       -0.2320885E-04 Eh
 * total energy  :   -18.3903686 Eh     change       -0.1328537E-04 Eh
 * total energy  :   -18.3903834 Eh     change       -0.1477473E-04 Eh
 * total energy  :   -18.3903934 Eh     change       -0.1003858E-04 Eh
 * total energy  :   -18.3904054 Eh     change       -0.1192964E-04 Eh
 * total energy  :   -18.3904131 Eh     change       -0.7742443E-05 Eh
 * total energy  :   -18.3904173 Eh     change       -0.4212067E-05 Eh
   *** GEOMETRY OPTIMIZATION CONVERGED AFTER 51 ITERATIONS ***

 final structure:
================
12
 xtb: 6.7.1 (edcfbbe)
C           -3.78227425731601       -0.75423658132101       -0.67012031811852
C           -2.74729295866008        0.10291521085975       -0.73244597382384
C           -1.37182749774034       -0.36452600755893       -0.26182414575435
O           -2.80764100814819        1.32833777356943       -1.17415069840095
H           -3.66328254334215       -1.75628517032873       -0.29280143295160
H           -4.77100029226482       -0.46096995031099       -0.98578149316709
H           -1.39340095002369       -1.41470953232572        0.01417394832886
H           -0.64566674041987       -0.20594632392706       -1.05835699247084
H           -1.06513050966858        0.23401260938149        0.59555564875183
O           -5.09136827132690        2.18412691289089       -2.08879070301929
H           -4.23206893788602        1.84309733441024       -1.68340491287804
H           -4.85529470045544        2.41316314541665       -2.99356513174227

          :  Hamiltonian                  GFN2-xTB          :
         :: gradient norm              0.000584721407 Eh/a0 ::
         :: HOMO-LUMO gap              4.852842099381 eV    ::
         :: SCC energy               -18.581702240238 Eh    ::
         :: -> dispersion             -0.006032610057 Eh    ::
         :: -> Gsolv                  -0.108689518776 Eh    ::
         :: repulsion energy           0.191284915767 Eh    ::

    * Orbital Energies and Occupations

         #    Occupation            Energy/Eh            Energy/eV
      -------------------------------------------------------------
         1        2.0000           -0.6426681             -17.4879
       ...           ...                  ...                  ...
         4        2.0000           -0.5546375             -15.0925
         5        2.0000           -0.5257525             -14.3065
         6        2.0000           -0.5040135             -13.7149
         7        2.0000           -0.4774075             -12.9909
         8        2.0000           -0.4730217             -12.8716
         9        2.0000           -0.4724188             -12.8552
        10        2.0000           -0.4607143             -12.5367
        11        2.0000           -0.4258955             -11.5892
        12        2.0000           -0.4138157             -11.2605
        13        2.0000           -0.4117448             -11.2041
        14        2.0000           -0.4061373             -11.0516
        15        2.0000           -0.3330638              -9.0631
        16        2.0000           -0.3062520              -8.3335 (HOMO)
        17                         -0.1279133              -3.4807 (LUMO)
        18                          0.1127156               3.0671
        19                          0.1524336               4.1479
        20                          0.1681118               4.5746
        21                          0.1992204               5.4211
        22                          0.2235879               6.0841
        23                          0.2335338               6.3548
        24                          0.2835686               7.7163
        25                          0.3039133               8.2699
        26                          0.4890640              13.3081
        27                          0.6463050              17.5869
      -------------------------------------------------------------
                  HL-Gap            0.1783387 Eh            4.8528 eV

     #   Z          covCN         q      C6AA      α(0)
     1   6 C        2.839    -0.199    33.243     9.449
     2   6 C        2.810     0.145    24.830     8.164
     3   6 C        3.755    -0.109    22.642     6.785
     4   8 O        0.859    -0.734    29.654     7.301
     5   1 H        0.926    -0.041     3.869     3.076
     6   1 H        0.926    -0.035     3.752     3.029
     7   1 H        0.925     0.018     2.761     2.599
     8   1 H        0.925     0.021     2.713     2.576
     9   1 H        0.925     0.020     2.728     2.583
    10   8 O        1.602    -0.720    28.258     7.174
    11   1 H        0.799     0.299     0.724     1.337
    12   1 H        0.805     0.334     0.628     1.244

Wiberg/Mayer (AO) data.
largest (>0.10) Wiberg bond orders for each atom

     #   Z sym  total        # sym  WBO       # sym  WBO       # sym  WBO
 ---------------------------------------------------------------------------
     1   6 C    3.896 --     2 C    1.699     5 H    0.979     6 H    0.978
                             4 O    0.201
     2   6 C    3.963 --     1 C    1.699     4 O    1.278     3 C    0.979
     3   6 C    3.996 --     7 H    0.989     8 H    0.982     9 H    0.981
                             2 C    0.979
     4   8 O    1.699 --     2 C    1.278     1 C    0.201    11 H    0.110
     5   1 H    0.998 --     1 C    0.979
     6   1 H    0.999 --     1 C    0.978
     7   1 H    0.999 --     3 C    0.989
     8   1 H    1.000 --     3 C    0.982
     9   1 H    1.000 --     3 C    0.981
    10   8 O    1.740 --    12 H    0.888    11 H    0.795
    11   1 H    0.910 --    10 O    0.795     4 O    0.110
    12   1 H    0.889 --    10 O    0.888
 ---------------------------------------------------------------------------

molecular dipole:
                 x           y           z       tot (Debye)
 q only:        6.803      -1.746       1.805
   full:        7.035      -1.931       1.806      19.103

 projected vibrational frequencies (cm⁻¹)
eigval :       -0.00    -0.00    -0.00     0.00     0.00     0.00
eigval :      -82.93    40.22    84.04    84.72   244.64   431.21
eigval :      495.87   508.76   552.93   657.60   702.52   873.91
eigval :      899.33   994.44  1012.70  1034.20  1280.39  1364.50
eigval :     1412.70  1473.95  1494.21  1532.58  1664.07  2591.62
eigval :     2985.09  3002.31  3026.04  3061.89  3074.99  3606.84

   temp. (K)  partition function   enthalpy   heat capacity  entropy
                                   cal/mol     cal/K/mol   cal/K/mol   J/K/mol
 298.15  VIB   124.                 2697.583     16.299     17.404
         ROT  0.129E+06              888.752      2.981     26.370
         INT  0.160E+08             3586.336     19.280     43.774
         TR   0.630E+27             1481.254      4.968     38.846
         TOT                        5067.5896    24.2482    82.6204   345.6838

       T/K    H(0)-H(T)+PV         H(T)/Eh          T*S/Eh         G(T)/Eh
   ------------------------------------------------------------------------
    298.15    0.807572E-02    0.996313E-01    0.392556E-01    0.603757E-01
   ------------------------------------------------------------------------

         :::::::::::::::::::::::::::::::::::::::::::::::::::::
         ::                  THERMODYNAMIC                  ::
         :::::::::::::::::::::::::::::::::::::::::::::::::::::
         :: total free energy         -18.330041614857 Eh   ::
         ::.................................................::
         :: total energy              -18.390417324309 Eh   ::
         :: zero point energy           0.091555618135 Eh   ::
         :: G(RRHO) w/o ZPVE           -0.031179908683 Eh   ::
         :: G(RRHO) contrib.            0.060375709452 Eh   ::
         :::::::::::::::::::::::::::::::::::::::::::::::::::::

           -------------------------------------------------
          | TOTAL ENERGY              -18.390417324309 Eh   |
          | TOTAL ENTHALPY            -18.290785988157 Eh   |
          | TOTAL FREE ENERGY         -18.330041614857 Eh   |
          | GRADIENT NORM               0.000584739921 Eh/α |
          | HOMO-LUMO GAP               4.852843563953 eV   |
           -------------------------------------------------

 * finished run on 2025/10/18 at 01:53:52.883
normal termination of xtb
