   * xtb version 6.7.1 (edcfbbe) compiled by 'albert@albert-system' on 2024-07-22

   ID    Z sym.   atoms
    1    6 C      1-3
    2    8 O      4, 10
    3    1 H      5-9, 11, 12

          program call               : xtb tb_lite_results_shiftn0p15_gp260_b0_rot180_complex.xyz --ohess --chrg -1 --alpb water
      * Solvation model:               ALPB
        Solvent                        water
        Solvent mass                       1.8000E+01 g/mol
          :  Hamiltonian                  GFN2-xTB          :
 * total energy  :   -18.3852446 Eh     change       -0.5284306E-10 Eh
 * total energy  :   -18.3884455 Eh     change       -0.3200945E-02 Eh
 * total energy  :   -18.3888092 Eh     change       -0.3637306E-03 Eh
 * total energy  :   -18.3889149 Eh     change       -0.1056499E-03 Eh
 * total energy  :   -18.3890293 Eh     change       -0.1144319E-03 Eh
 * total energy  :   -18.3890584 Eh     change       -0.2909120E-04 Eh
 * total energy  :   -18.3891197 Eh     change       -0.6133208E-04 Eh
 * total energy  :   -18.3891593 Eh     change       -0.3957179E-04 Eh
 * total energy  :   -18.3892085 Eh     change       -0.4919343E-04 Eh
 * total energy  :   -18.3892980 Eh     change       -0.8946325E-04 Eh
 * total energy  :   -18.3903170 Eh     change        0.6475193E-05 Eh
 * total energy  :   -18.3903534 Eh     change       -0.3643855E-04 Eh
 * total energy  :   -18.3903638 Eh     change       -0.1032703E-04 Eh
 * total energy  :   -18.3903979 Eh     change       -0.3413987E-04 Eh
 * total energy  :   -18.3904056 Eh     change       -0.7733696E-05 Eh
 * total energy  :   -18.3904262 Eh     change       -0.2054927E-04 Eh
 * total energy  :   -18.3904264 Eh     change       -0.1941326E-06 Eh
 * total energy  :   -18.3904326 Eh     change       -0.6259627E-05 Eh
 * total energy  :   -18.3904340 Eh     change       -0.1324095E-05 Eh
   *** GEOMETRY OPTIMIZATION CONVERGED AFTER 44 ITERATIONS ***

 final structure:
================
12
 xtb: 6.7.1 (edcfbbe)
C           -3.79112608947216       -0.68431121257915       -0.65239976264845
C           -2.67457186811760        0.03067912798120       -0.87968038678944
C           -1.37784513469810       -0.38491074152357       -0.18907946641073
O           -2.59237773674286        1.07298626970946       -1.65933891890081
H           -3.79111345924214       -1.53618410135036        0.00710890041539
H           -4.72906300629693       -0.41793842437029       -1.11308360582453
H           -1.53055063093349       -1.27192494725457        0.41853745841656
H           -0.61504506297706       -0.58011568384443       -0.94198149813514
H           -1.02815414680392        0.43468188463112        0.43785566539775
O           -4.78169668255076        1.84719199779743       -2.83928599269876
H           -3.95790626801029        1.55642035583893       -2.33278026042136
H           -4.52146214394098        1.79788784384084       -3.76466017534707

          :  Hamiltonian                  GFN2-xTB          :
         :: gradient norm              0.000158851410 Eh/a0 ::
         :: HOMO-LUMO gap              4.853096135927 eV    ::
         :: SCC energy               -18.581788045222 Eh    ::
         :: -> dispersion             -0.006042489829 Eh    ::
         :: -> Gsolv                  -0.108750089014 Eh    ::
         :: repulsion energy           0.191354090228 Eh    ::

    * Orbital Energies and Occupations

         #    Occupation            Energy/Eh            Energy/eV
      -------------------------------------------------------------
         1        2.0000           -0.6426395             -17.4871
       ...           ...                  ...                  ...
         4        2.0000           -0.5546158             -15.0919
         5        2.0000           -0.5255967             -14.3022
         6        2.0000           -0.5039764             -13.7139
         7        2.0000           -0.4774249             -12.9914
         8        2.0000           -0.4730122             -12.8713
         9        2.0000           -0.4725405             -12.8585
        10        2.0000           -0.4605883             -12.5332
        11        2.0000           -0.4259345             -11.5903
        12        2.0000           -0.4137604             -11.2590
        13        2.0000           -0.4118053             -11.2058
        14        2.0000           -0.4059380             -11.0461
        15        2.0000           -0.3331073              -9.0643
        16        2.0000           -0.3062519              -8.3335 (HOMO)
        17                         -0.1279040              -3.4804 (LUMO)
        18                          0.1129874               3.0745
        19                          0.1528524               4.1593
        20                          0.1682195               4.5775
        21                          0.1993541               5.4247
        22                          0.2242668               6.1026
        23                          0.2335361               6.3548
        24                          0.2839618               7.7270
        25                          0.3032481               8.2518
        26                          0.4891282              13.3099
        27                          0.6460761              17.5806
      -------------------------------------------------------------
                  HL-Gap            0.1783479 Eh            4.8531 eV

     #   Z          covCN         q      C6AA      α(0)
     1   6 C        2.839    -0.199    33.242     9.449
     2   6 C        2.810     0.145    24.832     8.164
     3   6 C        3.755    -0.109    22.642     6.785
     4   8 O        0.859    -0.734    29.660     7.302
     5   1 H        0.926    -0.041     3.870     3.076
     6   1 H        0.926    -0.035     3.736     3.023
     7   1 H        0.925     0.018     2.762     2.599
     8   1 H        0.925     0.021     2.713     2.576
     9   1 H        0.925     0.020     2.727     2.582
    10   8 O        1.602    -0.721    28.269     7.176
    11   1 H        0.799     0.299     0.724     1.337
    12   1 H        0.805     0.334     0.628     1.244

Wiberg/Mayer (AO) data.
largest (>0.10) Wiberg bond orders for each atom

     #   Z sym  total        # sym  WBO       # sym  WBO       # sym  WBO
 ---------------------------------------------------------------------------
     1   6 C    3.897 --     2 C    1.700     5 H    0.979     6 H    0.978
                             4 O    0.201
     2   6 C    3.963 --     1 C    1.700     4 O    1.277     3 C    0.979
     3   6 C    3.996 --     7 H    0.989     8 H    0.982     9 H    0.981
                             2 C    0.979
     4   8 O    1.699 --     2 C    1.277     1 C    0.201    11 H    0.110
     5   1 H    0.998 --     1 C    0.979
     6   1 H    0.999 --     1 C    0.978
     7   1 H    0.999 --     3 C    0.989
     8   1 H    1.000 --     3 C    0.982
     9   1 H    1.000 --     3 C    0.981
    10   8 O    1.739 --    12 H    0.888    11 H    0.795
    11   1 H    0.910 --    10 O    0.795     4 O    0.110
    12   1 H    0.889 --    10 O    0.888
 ---------------------------------------------------------------------------

molecular dipole:
                 x           y           z       tot (Debye)
 q only:        6.477      -1.550       2.583
   full:        6.688      -1.745       2.645      18.810

 projected vibrational frequencies (cm⁻¹)
eigval :       -0.00    -0.00     0.00     0.00     0.00     0.00
eigval :     -135.30    45.58    78.66    90.03   244.93   431.69
eigval :      495.84   511.64   560.03   657.63   704.44   869.31
eigval :      885.12   994.34  1012.29  1034.38  1280.78  1363.96
eigval :     1412.20  1473.71  1493.83  1531.47  1664.40  2585.23
eigval :     2986.38  3003.08  3027.05  3061.95  3077.04  3610.93

   temp. (K)  partition function   enthalpy   heat capacity  entropy
                                   cal/mol     cal/K/mol   cal/K/mol   J/K/mol
 298.15  VIB   111.                 2688.081     16.403     17.383
         ROT  0.129E+06              888.752      2.981     26.359
         INT  0.142E+08             3576.833     19.384     43.742
         TR   0.630E+27             1481.254      4.968     38.846
         TOT                        5058.0869    24.3518    82.5881   345.5485

       T/K    H(0)-H(T)+PV         H(T)/Eh          T*S/Eh         G(T)/Eh
   ------------------------------------------------------------------------
    298.15    0.806057E-02    0.996155E-01    0.392403E-01    0.603752E-01
   ------------------------------------------------------------------------

         :::::::::::::::::::::::::::::::::::::::::::::::::::::
         ::                  THERMODYNAMIC                  ::
         :::::::::::::::::::::::::::::::::::::::::::::::::::::
         :: total free energy         -18.330058762520 Eh   ::
         ::.................................................::
         :: total energy              -18.390433955601 Eh   ::
         :: zero point energy           0.091554878871 Eh   ::
         :: G(RRHO) w/o ZPVE           -0.031179685790 Eh   ::
         :: G(RRHO) contrib.            0.060375193081 Eh   ::
         :::::::::::::::::::::::::::::::::::::::::::::::::::::

           -------------------------------------------------
          | TOTAL ENERGY              -18.390433955601 Eh   |
          | TOTAL ENTHALPY            -18.290818502171 Eh   |
          | TOTAL FREE ENERGY         -18.330058762520 Eh   |
          | GRADIENT NORM               0.000158926618 Eh/α |
          | HOMO-LUMO GAP               4.853093010761 eV   |
           -------------------------------------------------

 * finished run on 2025/10/18 at 01:54:02.472
normal termination of xtb
