   * xtb version 6.7.1 (edcfbbe) compiled by 'albert@albert-system' on 2024-07-22

   ID    Z sym.   atoms
    1    6 C      1-3
    2    8 O      4, 10
    3    1 H      5-9, 11, 12

          program call               : xtb tb_lite_results_shiftn0p15_gp288_b0_rot180_complex.xyz --ohess --chrg -1 --alpb water
      * Solvation model:               ALPB
        Solvent                        water
        Solvent mass                       1.8000E+01 g/mol
          :  Hamiltonian                  GFN2-xTB          :
 * total energy  :   -18.3848044 Eh     change       -0.4407141E-10 Eh
 * total energy  :   -18.3880051 Eh     change       -0.3200734E-02 Eh
 * total energy  :   -18.3883922 Eh     change       -0.3870644E-03 Eh
 * total energy  :   -18.3885082 Eh     change       -0.1159826E-03 Eh
 * total energy  :   -18.3885894 Eh     change       -0.8123217E-04 Eh
 * total energy  :   -18.3886080 Eh     change       -0.1863516E-04 Eh
 * total energy  :   -18.3886204 Eh     change       -0.1238413E-04 Eh
 * total energy  :   -18.3886350 Eh     change       -0.1458501E-04 Eh
 * total energy  :   -18.3886491 Eh     change       -0.1413415E-04 Eh
 * total energy  :   -18.3886758 Eh     change       -0.2667852E-04 Eh
 * total energy  :   -18.3904571 Eh     change       -0.3532520E-05 Eh
 * total energy  :   -18.3904676 Eh     change       -0.1050827E-04 Eh
 * total energy  :   -18.3904736 Eh     change       -0.6010238E-05 Eh
 * total energy  :   -18.3904854 Eh     change       -0.1176887E-04 Eh
 * total energy  :   -18.3904725 Eh     change        0.1295867E-04 Eh
 * total energy  :   -18.3904973 Eh     change       -0.2483062E-04 Eh
 * total energy  :   -18.3905033 Eh     change       -0.6046309E-05 Eh
 * total energy  :   -18.3905085 Eh     change       -0.5172338E-05 Eh
 * total energy  :   -18.3905135 Eh     change       -0.4968765E-05 Eh
   *** GEOMETRY OPTIMIZATION CONVERGED AFTER 73 ITERATIONS ***

 final structure:
================
12
 xtb: 6.7.1 (edcfbbe)
C           -3.76922297467229       -0.78794251364348       -0.71258607772271
C           -2.76125808868242        0.10054557815004       -0.65023109642788
C           -1.36820320749163       -0.38721652767605       -0.25972453257979
O           -2.86668381853704        1.37721435610120       -0.89480449190209
H           -3.61547113105969       -1.83262085999898       -0.49890998694639
H           -4.76625424151588       -0.48234753279433       -0.98773734923887
H           -1.36946629656722       -1.45861689746577       -0.08304147195779
H           -0.66721719966200       -0.14617345830538       -1.05800716710681
H           -1.04367456144669        0.13400370911231        0.64022473801026
O           -5.21681938067516        2.28958508233728       -1.54813019283898
H           -4.31672931223583        1.89056839974437       -1.32406113534720
H           -5.22071148277907        3.13837193750654       -1.09431404769757

          :  Hamiltonian                  GFN2-xTB          :
         :: gradient norm              0.000335209670 Eh/a0 ::
         :: HOMO-LUMO gap              4.853634378367 eV    ::
         :: SCC energy               -18.581933140225 Eh    ::
         :: -> dispersion             -0.006030048281 Eh    ::
         :: -> Gsolv                  -0.109020411595 Eh    ::
         :: repulsion energy           0.191419664648 Eh    ::

    * Orbital Energies and Occupations

         #    Occupation            Energy/Eh            Energy/eV
      -------------------------------------------------------------
         1        2.0000           -0.6426302             -17.4869
       ...           ...                  ...                  ...
         4        2.0000           -0.5545315             -15.0896
         5        2.0000           -0.5256180             -14.3028
         6        2.0000           -0.5038338             -13.7100
         7        2.0000           -0.4774986             -12.9934
         8        2.0000           -0.4729777             -12.8704
         9        2.0000           -0.4722237             -12.8499
        10        2.0000           -0.4605542             -12.5323
        11        2.0000           -0.4257454             -11.5851
        12        2.0000           -0.4137507             -11.2587
        13        2.0000           -0.4114860             -11.1971
        14        2.0000           -0.4062716             -11.0552
        15        2.0000           -0.3330657              -9.0632
        16        2.0000           -0.3061234              -8.3300 (HOMO)
        17                         -0.1277556              -3.4764 (LUMO)
        18                          0.1126300               3.0648
        19                          0.1533821               4.1737
        20                          0.1685358               4.5861
        21                          0.1995638               5.4304
        22                          0.2243978               6.1062
        23                          0.2336926               6.3591
        24                          0.2842958               7.7361
        25                          0.3031363               8.2488
        26                          0.4898438              13.3293
        27                          0.6460884              17.5810
      -------------------------------------------------------------
                  HL-Gap            0.1783678 Eh            4.8536 eV

     #   Z          covCN         q      C6AA      α(0)
     1   6 C        2.839    -0.199    33.234     9.447
     2   6 C        2.810     0.145    24.836     8.165
     3   6 C        3.755    -0.109    22.642     6.785
     4   8 O        0.859    -0.734    29.648     7.300
     5   1 H        0.926    -0.040     3.865     3.074
     6   1 H        0.926    -0.035     3.751     3.028
     7   1 H        0.925     0.018     2.762     2.599
     8   1 H        0.925     0.021     2.722     2.580
     9   1 H        0.925     0.021     2.712     2.575
    10   8 O        1.602    -0.721    28.290     7.178
    11   1 H        0.799     0.299     0.726     1.338
    12   1 H        0.805     0.335     0.625     1.242

Wiberg/Mayer (AO) data.
largest (>0.10) Wiberg bond orders for each atom

     #   Z sym  total        # sym  WBO       # sym  WBO       # sym  WBO
 ---------------------------------------------------------------------------
     1   6 C    3.897 --     2 C    1.700     5 H    0.979     6 H    0.977
                             4 O    0.201
     2   6 C    3.963 --     1 C    1.700     4 O    1.277     3 C    0.979
     3   6 C    3.996 --     7 H    0.989     8 H    0.982     9 H    0.981
                             2 C    0.979
     4   8 O    1.699 --     2 C    1.277     1 C    0.201    11 H    0.111
     5   1 H    0.998 --     1 C    0.979
     6   1 H    0.999 --     1 C    0.977
     7   1 H    0.999 --     3 C    0.989
     8   1 H    1.000 --     3 C    0.982
     9   1 H    1.000 --     3 C    0.981
    10   8 O    1.739 --    12 H    0.887    11 H    0.795
    11   1 H    0.911 --    10 O    0.795     4 O    0.111
    12   1 H    0.888 --    10 O    0.887
 ---------------------------------------------------------------------------

molecular dipole:
                 x           y           z       tot (Debye)
 q only:        6.767      -1.454       2.140
   full:        6.975      -1.561       2.289      19.077

 projected vibrational frequencies (cm⁻¹)
eigval :       -0.00    -0.00    -0.00     0.00     0.00     0.00
eigval :       44.73    69.49    79.75    95.24   245.17   431.61
eigval :      494.45   508.26   567.60   656.10   711.18   874.51
eigval :      889.63   993.64  1012.75  1034.16  1281.36  1364.10
eigval :     1412.76  1473.80  1494.10  1539.89  1664.55  2582.96
eigval :     2986.90  3003.52  3028.13  3061.61  3076.01  3613.16

   temp. (K)  partition function   enthalpy   heat capacity  entropy
                                   cal/mol     cal/K/mol   cal/K/mol   J/K/mol
 298.15  VIB   373.                 3176.662     18.134     21.220
         ROT  0.129E+06              888.752      2.981     26.366
         INT  0.481E+08             4065.415     21.115     47.586
         TR   0.630E+27             1481.254      4.968     38.846
         TOT                        5546.6687    26.0831    86.4324   361.6333

       T/K    H(0)-H(T)+PV         H(T)/Eh          T*S/Eh         G(T)/Eh
   ------------------------------------------------------------------------
    298.15    0.883918E-02    0.100629E+00    0.410668E-01    0.595622E-01
   ------------------------------------------------------------------------

         :::::::::::::::::::::::::::::::::::::::::::::::::::::
         ::                  THERMODYNAMIC                  ::
         :::::::::::::::::::::::::::::::::::::::::::::::::::::
         :: total free energy         -18.330951237240 Eh   ::
         ::.................................................::
         :: total energy              -18.390513476584 Eh   ::
         :: zero point energy           0.091789901408 Eh   ::
         :: G(RRHO) w/o ZPVE           -0.032227662064 Eh   ::
         :: G(RRHO) contrib.            0.059562239344 Eh   ::
         :::::::::::::::::::::::::::::::::::::::::::::::::::::

           -------------------------------------------------
          | TOTAL ENERGY              -18.390513476584 Eh   |
          | TOTAL ENTHALPY            -18.289884395954 Eh   |
          | TOTAL FREE ENERGY         -18.330951237240 Eh   |
          | GRADIENT NORM               0.000335133034 Eh/α |
          | HOMO-LUMO GAP               4.853635511604 eV   |
           -------------------------------------------------

 * finished run on 2025/10/18 at 01:53:57.667
normal termination of xtb
