   * xtb version 6.7.1 (edcfbbe) compiled by 'albert@albert-system' on 2024-07-22

   ID    Z sym.   atoms
    1    6 C      1, 2
    2    9 F      3-5
    3    8 O      6
    4    1 H      7, 8

          program call               : xtb xyz.xyz --alpb water --charge -1 --ohess
      * Solvation model:               ALPB
        Solvent                        water
        Solvent mass                       1.8000E+01 g/mol
          :  Hamiltonian                  GFN2-xTB          :
 * total energy  :   -23.8608736 Eh     change       -0.1720082E-09 Eh
 * total energy  :   -23.8637122 Eh     change       -0.2838528E-02 Eh
 * total energy  :   -23.8639082 Eh     change       -0.1960584E-03 Eh
 * total energy  :   -23.8639240 Eh     change       -0.1580231E-04 Eh
 * total energy  :   -23.8639303 Eh     change       -0.6214012E-05 Eh
 * total energy  :   -23.8639306 Eh     change       -0.3507471E-06 Eh
   *** GEOMETRY OPTIMIZATION CONVERGED AFTER 6 ITERATIONS ***

 final structure:
================
8
 xtb: 6.7.1 (edcfbbe)
C           -3.09872280718988       -2.92748676243624        0.32413209872090
C           -4.57309591014554       -3.40222373771618        0.29805633984255
F           -2.22801634574540       -3.85705899723479       -0.15866004927739
F           -2.86990164523198       -1.82519931640486       -0.41600154046042
F           -2.64306557538537       -2.63798530434345        1.55840086374577
O           -5.41504240894513       -2.50813398175219        0.76719483761435
H           -4.54263458847213       -4.37094441405055        0.87359213281162
H           -4.73474071888457       -3.68336348606173       -0.78143868299738

          :  Hamiltonian                  GFN2-xTB          :
         :: gradient norm              0.000226137293 Eh/a0 ::
         :: HOMO-LUMO gap              9.683820730290 eV    ::
         :: SCC energy               -23.945609474469 Eh    ::
         :: -> dispersion             -0.004197844075 Eh    ::
         :: -> Gsolv                  -0.102322626827 Eh    ::
         :: repulsion energy           0.081678872717 Eh    ::

    * Orbital Energies and Occupations

         #    Occupation            Energy/Eh            Energy/eV
      -------------------------------------------------------------
         1        2.0000           -0.8810723             -23.9752
       ...           ...                  ...                  ...
         7        2.0000           -0.6215522             -16.9133
         8        2.0000           -0.6146479             -16.7254
         9        2.0000           -0.5651894             -15.3796
        10        2.0000           -0.5517459             -15.0138
        11        2.0000           -0.5507789             -14.9875
        12        2.0000           -0.5386164             -14.6565
        13        2.0000           -0.5370930             -14.6150
        14        2.0000           -0.5370184             -14.6130
        15        2.0000           -0.5084844             -13.8366
        16        2.0000           -0.4981286             -13.5548
        17        2.0000           -0.4664837             -12.6937
        18        2.0000           -0.3419720              -9.3055
        19        2.0000           -0.3369242              -9.1682 (HOMO)
        20                          0.0189497               0.5156 (LUMO)
        21                          0.0379112               1.0316
        22                          0.0447123               1.2167
        23                          0.1115410               3.0352
        24                          0.1558442               4.2407
        25                          0.1801080               4.9010
        26                          0.3370555               9.1717
      -------------------------------------------------------------
                  HL-Gap            0.3558738 Eh            9.6838 eV

     #   Z          covCN         q      C6AA      α(0)
     1   6 C        3.324     0.460    17.804     6.709
     2   6 C        3.665     0.159    18.277     6.132
     3   9 F        0.790    -0.247    11.735     4.047
     4   9 F        0.790    -0.230    11.554     4.015
     5   9 F        0.790    -0.230    11.553     4.015
     6   8 O        0.855    -0.816    32.064     7.592
     7   1 H        0.918    -0.047     4.032     3.141
     8   1 H        0.918    -0.047     4.033     3.141

Wiberg/Mayer (AO) data.
largest (>0.10) Wiberg bond orders for each atom

     #   Z sym  total        # sym  WBO       # sym  WBO       # sym  WBO
 ---------------------------------------------------------------------------
     1   6 C    3.754 --     5 F    0.939     4 F    0.939     3 F    0.916
                             2 C    0.883
     2   6 C    3.975 --     6 O    1.179     8 H    0.928     7 H    0.928
                             1 C    0.883
     3   9 F    1.030 --     1 C    0.916
     4   9 F    1.052 --     1 C    0.939
     5   9 F    1.052 --     1 C    0.939
     6   8 O    1.363 --     2 C    1.179
     7   1 H    0.998 --     2 C    0.928
     8   1 H    0.998 --     2 C    0.928
 ---------------------------------------------------------------------------

molecular dipole:
                 x           y           z       tot (Debye)
 q only:        8.555       4.769      -1.242
   full:        8.730       4.546      -1.355      25.253

 projected vibrational frequencies (cm⁻¹)
eigval :       -0.00    -0.00    -0.00    -0.00     0.00     0.00
eigval :       84.73   182.28   290.46   383.49   464.34   475.10
eigval :      603.26   736.33   921.48   978.06  1073.26  1133.58
eigval :     1163.33  1246.18  1322.33  1466.82  2429.32  2558.65

   temp. (K)  partition function   enthalpy   heat capacity  entropy
                                   cal/mol     cal/K/mol   cal/K/mol   J/K/mol
 298.15  VIB   11.3                 1915.275     13.392     11.160
         ROT  0.131E+06              888.752      2.981     26.403
         INT  0.148E+07             2804.027     16.373     37.563
         TR   0.953E+27             1481.254      4.968     39.671
         TOT                        4285.2813    21.3414    77.2343   323.1482

       T/K    H(0)-H(T)+PV         H(T)/Eh          T*S/Eh         G(T)/Eh
   ------------------------------------------------------------------------
    298.15    0.682903E-02    0.467266E-01    0.366965E-01    0.100301E-01
   ------------------------------------------------------------------------

         :::::::::::::::::::::::::::::::::::::::::::::::::::::
         ::                  THERMODYNAMIC                  ::
         :::::::::::::::::::::::::::::::::::::::::::::::::::::
         :: total free energy         -23.853900462230 Eh   ::
         ::.................................................::
         :: total energy              -23.863930602136 Eh   ::
         :: zero point energy           0.039897601269 Eh   ::
         :: G(RRHO) w/o ZPVE           -0.029867461363 Eh   ::
         :: G(RRHO) contrib.            0.010030139906 Eh   ::
         :::::::::::::::::::::::::::::::::::::::::::::::::::::

           -------------------------------------------------
          | TOTAL ENERGY              -23.863930602136 Eh   |
          | TOTAL ENTHALPY            -23.817203970425 Eh   |
          | TOTAL FREE ENERGY         -23.853900462230 Eh   |
          | GRADIENT NORM               0.000226122488 Eh/α |
          | HOMO-LUMO GAP               9.683820095134 eV   |
           -------------------------------------------------

 * finished run on 2025/10/18 at 07:19:26.717
