   * xtb version 6.7.1 (edcfbbe) compiled by 'albert@albert-system' on 2024-07-22

   ID    Z sym.   atoms
    1    6 C      1
    2   17 Cl     2-4

          program call               : xtb xyz.xyz --charge -1 --ohess
          :  Hamiltonian                  GFN2-xTB          :
 * total energy  :   -15.9328512 Eh     change       -0.9432455E-12 Eh
 * total energy  :   -15.9334482 Eh     change       -0.5969647E-03 Eh
 * total energy  :   -15.9336230 Eh     change       -0.1748795E-03 Eh
 * total energy  :   -15.9336235 Eh     change       -0.4674238E-06 Eh
   *** GEOMETRY OPTIMIZATION CONVERGED AFTER 4 ITERATIONS ***

 final structure:
================
4
 xtb: 6.7.1 (edcfbbe)
C           -5.77897069002008       -2.76540762844890        2.58304812034455
Cl          -4.34589647815409       -1.78288326444241        2.52057306968082
Cl          -6.20746038628662       -3.76504609096953        1.22655303626694
Cl          -6.78358344553922       -2.74825401613916        4.00199777370769

          :  Hamiltonian                  GFN2-xTB          :
         :: gradient norm              0.000255697396 Eh/a0 ::
         :: HOMO-LUMO gap              1.567722063012 eV    ::
         :: SCC energy               -15.949405064236 Eh    ::
         :: -> dispersion             -0.003836447779 Eh    ::
         :: repulsion energy           0.015781549798 Eh    ::

    * Orbital Energies and Occupations

         #    Occupation            Energy/Eh            Energy/eV
      -------------------------------------------------------------
         1        2.0000           -0.8886269             -24.1808
         2        2.0000           -0.8871010             -24.1392
         3        2.0000           -0.8871010             -24.1392
         4        2.0000           -0.3760894             -10.2339
         5        2.0000           -0.3178130              -8.6481
         6        2.0000           -0.3178130              -8.6481
         7        2.0000           -0.2861805              -7.7874
         8        2.0000           -0.2541726              -6.9164
         9        2.0000           -0.2541726              -6.9164
        10        2.0000           -0.2517247              -6.8498
        11        2.0000           -0.2517247              -6.8498
        12        2.0000           -0.2456666              -6.6849
        13        2.0000           -0.0856491              -2.3306 (HOMO)
        14                         -0.0280363              -0.7629 (LUMO)
        15                          0.0891679               2.4264
        16                          0.0891679               2.4264
        17                          0.2004500               5.4545
        18                          0.2004664               5.4550
        19                          0.2004664               5.4550
        20                          0.2005464               5.4571
        21                          0.2005683               5.4577
        22                          0.2005683               5.4577
        23                          0.2014208               5.4809
        24                          0.2014208               5.4809
       ...                                ...                  ...
        31                          0.4218265              11.4785
      -------------------------------------------------------------
                  HL-Gap            0.0576127 Eh            1.5677 eV

     #   Z          covCN         q      C6AA      α(0)
     1   6 C        2.671     0.015    27.666     8.607
     2  17 Cl       1.023    -0.338   110.069    16.051
     3  17 Cl       1.023    -0.338   110.069    16.051
     4  17 Cl       1.023    -0.338   110.069    16.051

Wiberg/Mayer (AO) data.
largest (>0.10) Wiberg bond orders for each atom

     #   Z sym  total        # sym  WBO       # sym  WBO       # sym  WBO
 ---------------------------------------------------------------------------
     1   6 C    2.779 --     2 Cl   0.926     4 Cl   0.926     3 Cl   0.926
     2  17 Cl   0.999 --     1 C    0.926
     3  17 Cl   0.999 --     1 C    0.926
     4  17 Cl   0.999 --     1 C    0.926
 ---------------------------------------------------------------------------

molecular dipole:
                 x           y           z       tot (Debye)
 q only:       10.921       5.226      -4.881
   full:       10.921       5.226      -4.881      33.179

 projected vibrational frequencies (cm⁻¹)
eigval :       -0.00    -0.00    -0.00    -0.00     0.00     0.00
eigval :     -931.50   211.14   211.20   443.22   812.96   813.10

   temp. (K)  partition function   enthalpy   heat capacity  entropy
                                   cal/mol     cal/K/mol   cal/K/mol   J/K/mol
 298.15  VIB   2.89                  945.018      6.277      5.278
         ROT  0.367E+05              888.752      2.981     23.868
         INT  0.106E+06             1833.770      9.258     29.146
         TR   0.125E+28             1481.254      4.968     40.202
         TOT                        3315.0243    14.2264    69.3487   290.1551

       T/K    H(0)-H(T)+PV         H(T)/Eh          T*S/Eh         G(T)/Eh
   ------------------------------------------------------------------------
    298.15    0.528283E-02    0.109592E-01    0.329498E-01   -0.219907E-01
   ------------------------------------------------------------------------

         :::::::::::::::::::::::::::::::::::::::::::::::::::::
         ::                  THERMODYNAMIC                  ::
         :::::::::::::::::::::::::::::::::::::::::::::::::::::
         :: total free energy         -15.955614169428 Eh   ::
         ::.................................................::
         :: total energy              -15.933623514438 Eh   ::
         :: zero point energy           0.005676341037 Eh   ::
         :: G(RRHO) w/o ZPVE           -0.027666996028 Eh   ::
         :: G(RRHO) contrib.           -0.021990654990 Eh   ::
         :::::::::::::::::::::::::::::::::::::::::::::::::::::

           -------------------------------------------------
          | TOTAL ENERGY              -15.933623514438 Eh   |
          | TOTAL ENTHALPY            -15.922664345918 Eh   |
          | TOTAL FREE ENERGY         -15.955614169428 Eh   |
          | GRADIENT NORM               0.000255697480 Eh/α |
          | HOMO-LUMO GAP               1.567722061377 eV   |
           -------------------------------------------------

 * finished run on 2025/10/18 at 05:41:24.360
