   * xtb version 6.7.1 (edcfbbe) compiled by 'albert@albert-system' on 2024-07-22

   ID    Z sym.   atoms
    1    6 C      1
    2    1 H      2, 4, 5
    3    8 O      3, 6

          program call               : xtb xyz.xyz --alpb water --charge -1 --ohess
      * Solvation model:               ALPB
        Solvent                        water
        Solvent mass                       1.8000E+01 g/mol
          :  Hamiltonian                  GFN2-xTB          :
 * total energy  :   -12.0053823 Eh     change       -0.4090950E-11 Eh
 * total energy  :   -12.0073667 Eh     change       -0.1984381E-02 Eh
 * total energy  :   -12.0076525 Eh     change       -0.2857946E-03 Eh
 * total energy  :   -12.0076633 Eh     change       -0.1080996E-04 Eh
 * total energy  :   -12.0076660 Eh     change       -0.2667787E-05 Eh
   *** GEOMETRY OPTIMIZATION CONVERGED AFTER 5 ITERATIONS ***

 final structure:
================
6
 xtb: 6.7.1 (edcfbbe)
C           -7.12546753709908       -4.38504865432376        1.60390457667082
H           -7.87388827171092       -3.58622553501622        1.54823054549779
O           -7.62158177026192       -5.57645811429004        1.04183898752849
H           -6.21613633811943       -4.05855781061924        1.08631685208126
H           -6.91149119100596       -4.64636240806364        2.63912199958233
O           -7.95292389180269       -5.38305647768709       -0.34186496136070

          :  Hamiltonian                  GFN2-xTB          :
         :: gradient norm              0.000546126396 Eh/a0 ::
         :: HOMO-LUMO gap              6.855491003379 eV    ::
         :: SCC energy               -12.065073930719 Eh    ::
         :: -> dispersion             -0.001902908864 Eh    ::
         :: -> Gsolv                  -0.139790529939 Eh    ::
         :: repulsion energy           0.057407964118 Eh    ::

    * Orbital Energies and Occupations

         #    Occupation            Energy/Eh            Energy/eV
      -------------------------------------------------------------
         1        2.0000           -0.6701688             -18.2362
         2        2.0000           -0.6064108             -16.5013
         3        2.0000           -0.5847139             -15.9109
         4        2.0000           -0.5192762             -14.1302
         5        2.0000           -0.5159592             -14.0400
         6        2.0000           -0.5138614             -13.9829
         7        2.0000           -0.4429923             -12.0544
         8        2.0000           -0.4244051             -11.5486
         9        2.0000           -0.3376458              -9.1878
        10        2.0000           -0.3189891              -8.6801 (HOMO)
        11                         -0.0670544              -1.8246 (LUMO)
        12                          0.1174387               3.1957
        13                          0.1382781               3.7627
        14                          0.2038198               5.5462
        15                          0.2280480               6.2055
      -------------------------------------------------------------
                  HL-Gap            0.2519346 Eh            6.8555 eV

     #   Z          covCN         q      C6AA      α(0)
     1   6 C        3.624     0.076    19.732     6.401
     2   1 H        0.924     0.023     2.691     2.566
     3   8 O        1.771    -0.377    20.367     6.094
     4   1 H        0.924     0.023     2.692     2.566
     5   1 H        0.925     0.051     2.311     2.377
     6   8 O        0.922    -0.796    31.401     7.515

Wiberg/Mayer (AO) data.
largest (>0.10) Wiberg bond orders for each atom

     #   Z sym  total        # sym  WBO       # sym  WBO       # sym  WBO
 ---------------------------------------------------------------------------
     1   6 C    3.956 --     3 O    1.004     2 H    0.980     4 H    0.980
                             5 H    0.975
     2   1 H    0.999 --     1 C    0.980
     3   8 O    1.982 --     1 C    1.004     6 O    0.945
     4   1 H    0.999 --     1 C    0.980
     5   1 H    0.997 --     1 C    0.975
     6   8 O    0.993 --     3 O    0.945
 ---------------------------------------------------------------------------

molecular dipole:
                 x           y           z       tot (Debye)
 q only:       15.090      10.658       0.369
   full:       15.136      10.747       0.444      47.197

 projected vibrational frequencies (cm⁻¹)
eigval :       -0.00    -0.00    -0.00    -0.00    -0.00    -0.00
eigval :      186.15   398.80   942.34  1058.00  1123.95  1176.53
eigval :     1355.70  1427.86  1489.23  2868.35  2904.14  2979.41

   temp. (K)  partition function   enthalpy   heat capacity  entropy
                                   cal/mol     cal/K/mol   cal/K/mol   J/K/mol
 298.15  VIB   2.03                  646.650      4.868      3.577
         ROT  0.122E+05              888.752      2.981     21.680
         INT  0.248E+05             1535.402      7.849     25.257
         TR   0.312E+27             1481.254      4.968     37.453
         TOT                        3016.6560    12.8174    62.7091   262.3749

       T/K    H(0)-H(T)+PV         H(T)/Eh          T*S/Eh         G(T)/Eh
   ------------------------------------------------------------------------
    298.15    0.480735E-02    0.456104E-01    0.297951E-01    0.158152E-01
   ------------------------------------------------------------------------

         :::::::::::::::::::::::::::::::::::::::::::::::::::::
         ::                  THERMODYNAMIC                  ::
         :::::::::::::::::::::::::::::::::::::::::::::::::::::
         :: total free energy         -11.991850717840 Eh   ::
         ::.................................................::
         :: total energy              -12.007665966375 Eh   ::
         :: zero point energy           0.040803023383 Eh   ::
         :: G(RRHO) w/o ZPVE           -0.024987774848 Eh   ::
         :: G(RRHO) contrib.            0.015815248535 Eh   ::
         :::::::::::::::::::::::::::::::::::::::::::::::::::::

           -------------------------------------------------
          | TOTAL ENERGY              -12.007665966375 Eh   |
          | TOTAL ENTHALPY            -11.962055595607 Eh   |
          | TOTAL FREE ENERGY         -11.991850717840 Eh   |
          | GRADIENT NORM               0.000546135459 Eh/α |
          | HOMO-LUMO GAP               6.855490555880 eV   |
           -------------------------------------------------

 * finished run on 2025/10/18 at 02:37:52.157
