   * xtb version 6.7.1 (edcfbbe) compiled by 'albert@albert-system' on 2024-07-22

   ID    Z sym.   atoms
    1    6 C      1, 2
    2    9 F      3-5
    3    8 O      6, 9
    4    1 H      7, 8, 10, 11

          program call               : xtb tb_lite_results_shiftn0p2_gp416_b0_rot0_complex.xyz --ohess --chrg -1 --alpb water
      * Solvation model:               ALPB
        Solvent                        water
        Solvent mass                       1.8000E+01 g/mol
          :  Hamiltonian                  GFN2-xTB          :
 * total energy  :   -28.9565370 Eh     change       -0.7586465E-10 Eh
 * total energy  :   -28.9599770 Eh     change       -0.3439961E-02 Eh
 * total energy  :   -28.9603053 Eh     change       -0.3283630E-03 Eh
 * total energy  :   -28.9603675 Eh     change       -0.6223159E-04 Eh
 * total energy  :   -28.9603841 Eh     change       -0.1651886E-04 Eh
 * total energy  :   -28.9603950 Eh     change       -0.1089379E-04 Eh
 * total energy  :   -28.9604021 Eh     change       -0.7155446E-05 Eh
 * total energy  :   -28.9604093 Eh     change       -0.7181133E-05 Eh
 * total energy  :   -28.9604137 Eh     change       -0.4380651E-05 Eh
   *** GEOMETRY OPTIMIZATION CONVERGED AFTER 9 ITERATIONS ***

 final structure:
================
11
 xtb: 6.7.1 (edcfbbe)
C           -3.10355925051810       -2.92819493278085        0.31538776350196
C           -4.56192488566523       -3.41314312236248        0.29836852143048
F           -2.22808552014360       -3.84915624826066       -0.16894632358928
F           -2.89271384924933       -1.82472344756534       -0.42709711703514
F           -2.64652903102199       -2.63082059370006        1.54730660675522
O           -5.39751575538943       -2.48740611298540        0.76610954431379
H           -4.54839556135826       -4.35699966959111        0.89846850586793
H           -4.74905190388172       -3.70220379012392       -0.76322633398418
O           -7.69974534477352       -2.47866146081687       -0.49158127236761
H           -6.84572299637419       -2.50761913580954        0.02509471373691
H           -7.90429653823135       -1.54079199989365       -0.56265511970248

          :  Hamiltonian                  GFN2-xTB          :
         :: gradient norm              0.000933275308 Eh/a0 ::
         :: HOMO-LUMO gap              9.935629451966 eV    ::
         :: SCC energy               -29.071872883421 Eh    ::
         :: -> dispersion             -0.005410300452 Eh    ::
         :: -> Gsolv                  -0.103591502921 Eh    ::
         :: repulsion energy           0.111459205031 Eh    ::

    * Orbital Energies and Occupations

         #    Occupation            Energy/Eh            Energy/eV
      -------------------------------------------------------------
         1        2.0000           -0.8837121             -24.0470
       ...           ...                  ...                  ...
        11        2.0000           -0.5544874             -15.0884
        12        2.0000           -0.5534301             -15.0596
        13        2.0000           -0.5411437             -14.7253
        14        2.0000           -0.5396643             -14.6850
        15        2.0000           -0.5395342             -14.6815
        16        2.0000           -0.5298187             -14.4171
        17        2.0000           -0.5116900             -13.9238
        18        2.0000           -0.5017517             -13.6534
        19        2.0000           -0.4858359             -13.2203
        20        2.0000           -0.4702104             -12.7951
        21        2.0000           -0.4124845             -11.2243
        22        2.0000           -0.3546960              -9.6518
        23        2.0000           -0.3498939              -9.5211 (HOMO)
        24                          0.0152337               0.4145 (LUMO)
        25                          0.0352170               0.9583
        26                          0.0473031               1.2872
        27                          0.1158007               3.1511
        28                          0.1372424               3.7346
        29                          0.1579674               4.2985
        30                          0.1930783               5.2539
        31                          0.2671222               7.2688
        32                          0.3403759               9.2621
      -------------------------------------------------------------
                  HL-Gap            0.3651276 Eh            9.9356 eV

     #   Z          covCN         q      C6AA      α(0)
     1   6 C        3.326     0.468    17.670     6.680
     2   6 C        3.670     0.141    18.526     6.170
     3   9 F        0.790    -0.245    11.706     4.042
     4   9 F        0.790    -0.227    11.522     4.010
     5   9 F        0.790    -0.229    11.534     4.012
     6   8 O        0.856    -0.793    31.390     7.512
     7   1 H        0.920    -0.027     3.565     2.953
     8   1 H        0.921    -0.019     3.419     2.892
     9   8 O        1.605    -0.713    28.062     7.150
    10   1 H        0.801     0.301     0.719     1.332
    11   1 H        0.805     0.343     0.605     1.221

Wiberg/Mayer (AO) data.
largest (>0.10) Wiberg bond orders for each atom

     #   Z sym  total        # sym  WBO       # sym  WBO       # sym  WBO
 ---------------------------------------------------------------------------
     1   6 C    3.766 --     4 F    0.940     5 F    0.939     3 F    0.918
                             2 C    0.903
     2   6 C    3.976 --     6 O    1.135     8 H    0.940     7 H    0.937
                             1 C    0.903
     3   9 F    1.032 --     1 C    0.918
     4   9 F    1.054 --     1 C    0.940
     5   9 F    1.053 --     1 C    0.939
     6   8 O    1.417 --     2 C    1.135
     7   1 H    0.999 --     2 C    0.937
     8   1 H    1.000 --     2 C    0.940
     9   8 O    1.745 --    11 H    0.882    10 H    0.817
    10   1 H    0.909 --     9 O    0.817
    11   1 H    0.882 --     9 O    0.882
 ---------------------------------------------------------------------------

molecular dipole:
                 x           y           z       tot (Debye)
 q only:        9.309       5.200      -0.902
   full:        9.599       5.121      -0.921      27.753

 projected vibrational frequencies (cm⁻¹)
eigval :       -0.00    -0.00     0.00     0.00     0.00     0.00
eigval :      -28.07    45.09    63.86    88.90   157.06   277.99
eigval :      297.36   409.43   465.55   482.74   534.97   609.19
eigval :      761.37   855.16   919.33   984.29  1075.53  1126.31
eigval :     1159.56  1236.72  1316.47  1463.55  1544.52  2582.48
eigval :     2666.53  2820.11  3609.91

   temp. (K)  partition function   enthalpy   heat capacity  entropy
                                   cal/mol     cal/K/mol   cal/K/mol   J/K/mol
 298.15  VIB   330.                 3389.429     19.903     21.714
         ROT  0.361E+06              888.752      2.981     28.410
         INT  0.119E+09             4278.181     22.884     50.123
         TR   0.123E+28             1481.254      4.968     40.169
         TOT                        5759.4351    27.8519    90.2923   377.7830

       T/K    H(0)-H(T)+PV         H(T)/Eh          T*S/Eh         G(T)/Eh
   ------------------------------------------------------------------------
    298.15    0.917824E-02    0.719508E-01    0.429008E-01    0.290500E-01
   ------------------------------------------------------------------------

         :::::::::::::::::::::::::::::::::::::::::::::::::::::
         ::                  THERMODYNAMIC                  ::
         :::::::::::::::::::::::::::::::::::::::::::::::::::::
         :: total free energy         -28.931363638344 Eh   ::
         ::.................................................::
         :: total energy              -28.960413679999 Eh   ::
         :: zero point energy           0.062772583965 Eh   ::
         :: G(RRHO) w/o ZPVE           -0.033722542309 Eh   ::
         :: G(RRHO) contrib.            0.029050041655 Eh   ::
         :::::::::::::::::::::::::::::::::::::::::::::::::::::

           -------------------------------------------------
          | TOTAL ENERGY              -28.960413679999 Eh   |
          | TOTAL ENTHALPY            -28.888462852045 Eh   |
          | TOTAL FREE ENERGY         -28.931363638344 Eh   |
          | GRADIENT NORM               0.000933198221 Eh/α |
          | HOMO-LUMO GAP               9.935628831185 eV   |
           -------------------------------------------------

 * finished run on 2025/10/18 at 07:20:42.417
normal termination of xtb
