   * xtb version 6.7.1 (edcfbbe) compiled by 'albert@albert-system' on 2024-07-22

   ID    Z sym.   atoms
    1    6 C      1, 2
    2    9 F      3-5
    3    8 O      6
    4    1 H      7, 8

          program call               : xtb tb_lite_results_shiftn0p2_gp416_b0_rot0_solute.xyz --ohess --chrg -1
          :  Hamiltonian                  GFN2-xTB          :
 * total energy  :   -23.7611175 Eh     change       -0.4515499E-11 Eh
 * total energy  :   -23.7640873 Eh     change       -0.2969845E-02 Eh
 * total energy  :   -23.7648240 Eh     change       -0.7366880E-03 Eh
 * total energy  :   -23.7649938 Eh     change       -0.1697608E-03 Eh
 * total energy  :   -23.7650546 Eh     change       -0.6076004E-04 Eh
 * total energy  :   -23.7650607 Eh     change       -0.6180391E-05 Eh
 * total energy  :   -23.7650637 Eh     change       -0.2963387E-05 Eh
   *** GEOMETRY OPTIMIZATION CONVERGED AFTER 7 ITERATIONS ***

 final structure:
================
8
 xtb: 6.7.1 (edcfbbe)
C           -3.09986536224710       -2.91260338771262        0.33028846382281
C           -4.60864101683548       -3.38113206557193        0.31089716935970
F           -2.24895949631295       -3.87159612820643       -0.16475773017605
F           -2.83668312842937       -1.81777635183295       -0.41700164854952
F           -2.60840530383595       -2.63490525373417        1.55819664580540
O           -5.45703038906443       -2.53102402434752        0.75977191136556
H           -4.52671867078601       -4.37551304812594        0.87673259530551
H           -4.71891678183386       -3.68784586531210       -0.78885139447830

          :  Hamiltonian                  GFN2-xTB          :
         :: gradient norm              0.000620434620 Eh/a0 ::
         :: HOMO-LUMO gap              8.833138726527 eV    ::
         :: SCC energy               -23.844070871501 Eh    ::
         :: -> dispersion             -0.004291679978 Eh    ::
         :: repulsion energy           0.079007175716 Eh    ::

    * Orbital Energies and Occupations

         #    Occupation            Energy/Eh            Energy/eV
      -------------------------------------------------------------
         1        2.0000           -0.7013378             -19.0844
       ...           ...                  ...                  ...
         7        2.0000           -0.4410747             -12.0023
         8        2.0000           -0.4267601             -11.6127
         9        2.0000           -0.3790095             -10.3134
        10        2.0000           -0.3730281             -10.1506
        11        2.0000           -0.3728566             -10.1459
        12        2.0000           -0.3603202              -9.8048
        13        2.0000           -0.3586617              -9.7597
        14        2.0000           -0.3576829              -9.7330
        15        2.0000           -0.3232709              -8.7966
        16        2.0000           -0.3159046              -8.5962
        17        2.0000           -0.2742361              -7.4623
        18        2.0000           -0.1491909              -4.0597
        19        2.0000           -0.1422373              -3.8705 (HOMO)
        20                          0.1823746               4.9627 (LUMO)
        21                          0.2025848               5.5126
        22                          0.2112123               5.7474
        23                          0.2738222               7.4511
        24                          0.3240558               8.8180
        25                          0.3365967               9.1593
        26                          0.5983451              16.2818
      -------------------------------------------------------------
                  HL-Gap            0.3246119 Eh            8.8331 eV

     #   Z          covCN         q      C6AA      α(0)
     1   6 C        3.318     0.435    18.225     6.799
     2   6 C        3.649     0.177    18.062     6.105
     3   9 F        0.789    -0.268    11.963     4.086
     4   9 F        0.789    -0.234    11.590     4.021
     5   9 F        0.789    -0.234    11.590     4.021
     6   8 O        0.855    -0.710    28.975     7.217
     7   1 H        0.913    -0.083     5.011     3.501
     8   1 H        0.913    -0.083     5.011     3.501

Wiberg/Mayer (AO) data.
largest (>0.10) Wiberg bond orders for each atom

     #   Z sym  total        # sym  WBO       # sym  WBO       # sym  WBO
 ---------------------------------------------------------------------------
     1   6 C    3.712 --     4 F    0.939     5 F    0.938     3 F    0.901
                             2 C    0.836
     2   6 C    3.966 --     6 O    1.263     8 H    0.906     7 H    0.906
                             1 C    0.836
     3   9 F    1.011 --     1 C    0.901
     4   9 F    1.050 --     1 C    0.939
     5   9 F    1.050 --     1 C    0.938
     6   8 O    1.498 --     2 C    1.263
     7   1 H    0.993 --     2 C    0.906
     8   1 H    0.993 --     2 C    0.906
 ---------------------------------------------------------------------------

molecular dipole:
                 x           y           z       tot (Debye)
 q only:        8.229       5.067      -1.078
   full:        8.496       4.802      -1.218      24.998

 projected vibrational frequencies (cm⁻¹)
eigval :       -0.00    -0.00    -0.00    -0.00     0.00     0.00
eigval :       89.10   176.07   268.96   368.23   461.31   462.02
eigval :      601.69   678.27   936.94   975.73  1076.55  1112.72
eigval :     1262.99  1284.84  1342.55  1486.13  2205.46  2386.19

   temp. (K)  partition function   enthalpy   heat capacity  entropy
                                   cal/mol     cal/K/mol   cal/K/mol   J/K/mol
 298.15  VIB   11.9                 1960.432     13.537     11.427
         ROT  0.135E+06              888.752      2.981     26.461
         INT  0.161E+07             2849.185     16.518     37.888
         TR   0.953E+27             1481.254      4.968     39.671
         TOT                        4330.4386    21.4860    77.5588   324.5060

       T/K    H(0)-H(T)+PV         H(T)/Eh          T*S/Eh         G(T)/Eh
   ------------------------------------------------------------------------
    298.15    0.690099E-02    0.460302E-01    0.368507E-01    0.917948E-02
   ------------------------------------------------------------------------

         :::::::::::::::::::::::::::::::::::::::::::::::::::::
         ::                  THERMODYNAMIC                  ::
         :::::::::::::::::::::::::::::::::::::::::::::::::::::
         :: total free energy         -23.755884214614 Eh   ::
         ::.................................................::
         :: total energy              -23.765063695785 Eh   ::
         :: zero point energy           0.039129178595 Eh   ::
         :: G(RRHO) w/o ZPVE           -0.029949697424 Eh   ::
         :: G(RRHO) contrib.            0.009179481171 Eh   ::
         :::::::::::::::::::::::::::::::::::::::::::::::::::::

           -------------------------------------------------
          | TOTAL ENERGY              -23.765063695785 Eh   |
          | TOTAL ENTHALPY            -23.719033524028 Eh   |
          | TOTAL FREE ENERGY         -23.755884214614 Eh   |
          | GRADIENT NORM               0.000620436466 Eh/α |
          | HOMO-LUMO GAP               8.833138912548 eV   |
           -------------------------------------------------

 * finished run on 2025/10/18 at 07:20:42.709
normal termination of xtb
