   * xtb version 6.7.1 (edcfbbe) compiled by 'albert@albert-system' on 2024-07-22

   ID    Z sym.   atoms
    1    6 C      1, 2
    2    9 F      3-5
    3    8 O      6, 9
    4    1 H      7, 8, 10, 11

          program call               : xtb tb_lite_results_shiftn0p15_gp347_b0_rot90_complex.xyz --ohess --chrg -1 --alpb water
      * Solvation model:               ALPB
        Solvent                        water
        Solvent mass                       1.8000E+01 g/mol
          :  Hamiltonian                  GFN2-xTB          :
 * total energy  :   -28.9550448 Eh     change       -0.9967493E-10 Eh
 * total energy  :   -28.9582625 Eh     change       -0.3217697E-02 Eh
 * total energy  :   -28.9588554 Eh     change       -0.5929815E-03 Eh
 * total energy  :   -28.9590652 Eh     change       -0.2097247E-03 Eh
 * total energy  :   -28.9591570 Eh     change       -0.9186322E-04 Eh
 * total energy  :   -28.9592182 Eh     change       -0.6118458E-04 Eh
 * total energy  :   -28.9592404 Eh     change       -0.2221559E-04 Eh
 * total energy  :   -28.9592847 Eh     change       -0.4429057E-04 Eh
 * total energy  :   -28.9593118 Eh     change       -0.2710224E-04 Eh
 * total energy  :   -28.9593840 Eh     change       -0.7220542E-04 Eh
 * total energy  :   -28.9602046 Eh     change       -0.4664308E-04 Eh
 * total energy  :   -28.9602506 Eh     change       -0.4595642E-04 Eh
 * total energy  :   -28.9603077 Eh     change       -0.5709681E-04 Eh
 * total energy  :   -28.9603404 Eh     change       -0.3279658E-04 Eh
 * total energy  :   -28.9596721 Eh     change        0.6683634E-03 Eh
 * total energy  :   -28.9603467 Eh     change       -0.6745792E-03 Eh
 * total energy  :   -28.9603749 Eh     change       -0.2821211E-04 Eh
 * total energy  :   -28.9603822 Eh     change       -0.7279053E-05 Eh
 * total energy  :   -28.9603850 Eh     change       -0.2832711E-05 Eh
   *** GEOMETRY OPTIMIZATION CONVERGED AFTER 36 ITERATIONS ***

 final structure:
================
11
 xtb: 6.7.1 (edcfbbe)
C           -2.98037948233846       -3.07316391492650        0.07205256425963
C           -4.47762696788238       -3.21946229872350        0.40269306002271
F           -2.46802015501756       -4.15696889306129       -0.56901128768640
F           -2.70501635928309       -2.03111230997205       -0.73750657667276
F           -2.19987371820829       -2.90668000791445        1.15552369697802
O           -4.94858645169446       -2.17571288626109        1.08190662501130
H           -4.54829385949129       -4.18912514022595        0.94915876550006
H           -4.96460453523060       -3.36476333280481       -0.59273753697075
O           -5.56661000700608       -2.84540372441045        3.54103208514327
H           -5.37626740889538       -2.57296995073093        2.59981313339543
H           -5.24374137848237       -2.11135805937184        4.07397859932599

          :  Hamiltonian                  GFN2-xTB          :
         :: gradient norm              0.000688238080 Eh/a0 ::
         :: HOMO-LUMO gap              9.976735897231 eV    ::
         :: SCC energy               -29.071840630883 Eh    ::
         :: -> dispersion             -0.005514185271 Eh    ::
         :: -> Gsolv                  -0.103878292961 Eh    ::
         :: repulsion energy           0.111455644458 Eh    ::

    * Orbital Energies and Occupations

         #    Occupation            Energy/Eh            Energy/eV
      -------------------------------------------------------------
         1        2.0000           -0.8832160             -24.0335
       ...           ...                  ...                  ...
        11        2.0000           -0.5540706             -15.0770
        12        2.0000           -0.5529848             -15.0475
        13        2.0000           -0.5407800             -14.7154
        14        2.0000           -0.5392288             -14.6732
        15        2.0000           -0.5389420             -14.6654
        16        2.0000           -0.5315694             -14.4647
        17        2.0000           -0.5093251             -13.8594
        18        2.0000           -0.5016195             -13.6498
        19        2.0000           -0.4860395             -13.2258
        20        2.0000           -0.4703094             -12.7978
        21        2.0000           -0.4127853             -11.2325
        22        2.0000           -0.3547572              -9.6534
        23        2.0000           -0.3499955              -9.5239 (HOMO)
        24                          0.0166428               0.4529 (LUMO)
        25                          0.0359714               0.9788
        26                          0.0463048               1.2600
        27                          0.1165603               3.1718
        28                          0.1341740               3.6511
        29                          0.1571976               4.2776
        30                          0.1952653               5.3134
        31                          0.2679701               7.2918
        32                          0.3426560               9.3241
      -------------------------------------------------------------
                  HL-Gap            0.3666383 Eh            9.9767 eV

     #   Z          covCN         q      C6AA      α(0)
     1   6 C        3.325     0.467    17.695     6.686
     2   6 C        3.670     0.141    18.534     6.171
     3   9 F        0.790    -0.245    11.708     4.042
     4   9 F        0.790    -0.230    11.547     4.014
     5   9 F        0.790    -0.227    11.514     4.008
     6   8 O        0.856    -0.793    31.372     7.509
     7   1 H        0.921    -0.018     3.399     2.883
     8   1 H        0.920    -0.026     3.544     2.944
     9   8 O        1.605    -0.712    28.047     7.148
    10   1 H        0.801     0.301     0.720     1.333
    11   1 H        0.805     0.343     0.605     1.222

Wiberg/Mayer (AO) data.
largest (>0.10) Wiberg bond orders for each atom

     #   Z sym  total        # sym  WBO       # sym  WBO       # sym  WBO
 ---------------------------------------------------------------------------
     1   6 C    3.764 --     5 F    0.942     4 F    0.938     3 F    0.918
                             2 C    0.899
     2   6 C    3.976 --     6 O    1.137     7 H    0.940     8 H    0.938
                             1 C    0.899
     3   9 F    1.033 --     1 C    0.918
     4   9 F    1.052 --     1 C    0.938
     5   9 F    1.056 --     1 C    0.942
     6   8 O    1.422 --     2 C    1.137
     7   1 H    1.000 --     2 C    0.940
     8   1 H    0.999 --     2 C    0.938
     9   8 O    1.746 --    11 H    0.882    10 H    0.818
    10   1 H    0.910 --     9 O    0.818
    11   1 H    0.882 --     9 O    0.882
 ---------------------------------------------------------------------------

molecular dipole:
                 x           y           z       tot (Debye)
 q only:        8.298       5.055      -2.018
   full:        8.464       4.982      -2.261      25.616

 projected vibrational frequencies (cm⁻¹)
eigval :       -0.00    -0.00    -0.00     0.00     0.00     0.00
eigval :       18.21    39.60   105.69   178.93   195.23   287.15
eigval :      299.77   396.72   465.64   481.77   552.03   604.78
eigval :      755.61   866.68   921.41   986.84  1077.18  1127.47
eigval :     1157.45  1242.11  1319.55  1462.56  1551.00  2595.65
eigval :     2670.49  2828.35  3606.84

   temp. (K)  partition function   enthalpy   heat capacity  entropy
                                   cal/mol     cal/K/mol   cal/K/mol   J/K/mol
 298.15  VIB  0.151E+04             3762.869     20.907     23.832
         ROT  0.342E+06              888.752      2.981     28.304
         INT  0.518E+09             4651.621     23.888     52.135
         TR   0.123E+28             1481.254      4.968     40.169
         TOT                        6132.8751    28.8560    92.3044   386.2016

       T/K    H(0)-H(T)+PV         H(T)/Eh          T*S/Eh         G(T)/Eh
   ------------------------------------------------------------------------
    298.15    0.977336E-02    0.730944E-01    0.438568E-01    0.292376E-01
   ------------------------------------------------------------------------

         :::::::::::::::::::::::::::::::::::::::::::::::::::::
         ::                  THERMODYNAMIC                  ::
         :::::::::::::::::::::::::::::::::::::::::::::::::::::
         :: total free energy         -28.931147429927 Eh   ::
         ::.................................................::
         :: total energy              -28.960384987332 Eh   ::
         :: zero point energy           0.063320991420 Eh   ::
         :: G(RRHO) w/o ZPVE           -0.034083434015 Eh   ::
         :: G(RRHO) contrib.            0.029237557405 Eh   ::
         :::::::::::::::::::::::::::::::::::::::::::::::::::::

           -------------------------------------------------
          | TOTAL ENERGY              -28.960384987332 Eh   |
          | TOTAL ENTHALPY            -28.887290637323 Eh   |
          | TOTAL FREE ENERGY         -28.931147429927 Eh   |
          | GRADIENT NORM               0.000688378199 Eh/α |
          | HOMO-LUMO GAP               9.976735117723 eV   |
           -------------------------------------------------

 * finished run on 2025/10/18 at 07:20:39.859
normal termination of xtb
