   * xtb version 6.7.1 (edcfbbe) compiled by 'albert@albert-system' on 2024-07-22

   ID    Z sym.   atoms
    1    6 C      1, 2
    2    9 F      3-5
    3    8 O      6, 9
    4    1 H      7, 8, 10, 11

          program call               : xtb tb_lite_results_shiftn0p2_gp404_b0_rot0_complex.xyz --ohess --chrg -1 --alpb water
      * Solvation model:               ALPB
        Solvent                        water
        Solvent mass                       1.8000E+01 g/mol
          :  Hamiltonian                  GFN2-xTB          :
 * total energy  :   -28.9566972 Eh     change       -0.8622436E-11 Eh
 * total energy  :   -28.9600650 Eh     change       -0.3367768E-02 Eh
 * total energy  :   -28.9604212 Eh     change       -0.3562833E-03 Eh
 * total energy  :   -28.9604547 Eh     change       -0.3341553E-04 Eh
 * total energy  :   -28.9604692 Eh     change       -0.1450124E-04 Eh
 * total energy  :   -28.9604748 Eh     change       -0.5619104E-05 Eh
 * total energy  :   -28.9604772 Eh     change       -0.2370476E-05 Eh
   *** GEOMETRY OPTIMIZATION CONVERGED AFTER 7 ITERATIONS ***

 final structure:
================
11
 xtb: 6.7.1 (edcfbbe)
C           -3.10077922397507       -2.92974173409725        0.32105911594220
C           -4.56015533384450       -3.41448269161761        0.29777549312603
F           -2.22623727151781       -3.85214746590402       -0.16243781890100
F           -2.88559593288435       -1.82648347851203       -0.42080241674442
F           -2.64805956500285       -2.63434123937206        1.55392793826902
O           -5.39800504270221       -2.49406526620375        0.77078776143391
H           -4.54756983201374       -4.36512877019650        0.88291138738093
H           -4.74351661002379       -3.68900195017290       -0.77111813546389
O           -7.59134134318236       -3.50723828324319        1.80040242232390
H           -6.75389464259442       -3.12990498919129        1.41089676261456
H           -8.14209473948774       -2.73737403685706        1.97589557143292

          :  Hamiltonian                  GFN2-xTB          :
         :: gradient norm              0.000375826284 Eh/a0 ::
         :: HOMO-LUMO gap              9.940117238184 eV    ::
         :: SCC energy               -29.071985531005 Eh    ::
         :: -> dispersion             -0.005389030248 Eh    ::
         :: -> Gsolv                  -0.103810167274 Eh    ::
         :: repulsion energy           0.111508374565 Eh    ::

    * Orbital Energies and Occupations

         #    Occupation            Energy/Eh            Energy/eV
      -------------------------------------------------------------
         1        2.0000           -0.8837246             -24.0474
       ...           ...                  ...                  ...
        11        2.0000           -0.5544562             -15.0875
        12        2.0000           -0.5533930             -15.0586
        13        2.0000           -0.5411257             -14.7248
        14        2.0000           -0.5396535             -14.6847
        15        2.0000           -0.5395460             -14.6818
        16        2.0000           -0.5297233             -14.4145
        17        2.0000           -0.5118324             -13.9277
        18        2.0000           -0.5016685             -13.6511
        19        2.0000           -0.4859311             -13.2229
        20        2.0000           -0.4703103             -12.7978
        21        2.0000           -0.4125243             -11.2254
        22        2.0000           -0.3547073              -9.6521
        23        2.0000           -0.3498423              -9.5197 (HOMO)
        24                          0.0154501               0.4204 (LUMO)
        25                          0.0362242               0.9857
        26                          0.0470796               1.2811
        27                          0.1154239               3.1408
        28                          0.1378597               3.7514
        29                          0.1577451               4.2925
        30                          0.1922704               5.2319
        31                          0.2677311               7.2853
        32                          0.3405812               9.2677
      -------------------------------------------------------------
                  HL-Gap            0.3652924 Eh            9.9401 eV

     #   Z          covCN         q      C6AA      α(0)
     1   6 C        3.325     0.468    17.674     6.681
     2   6 C        3.670     0.141    18.521     6.169
     3   9 F        0.790    -0.245    11.706     4.042
     4   9 F        0.790    -0.228    11.527     4.011
     5   9 F        0.790    -0.228    11.525     4.010
     6   8 O        0.856    -0.793    31.374     7.510
     7   1 H        0.920    -0.021     3.460     2.909
     8   1 H        0.920    -0.026     3.549     2.946
     9   8 O        1.605    -0.713    28.064     7.150
    10   1 H        0.801     0.300     0.721     1.334
    11   1 H        0.805     0.344     0.602     1.219

Wiberg/Mayer (AO) data.
largest (>0.10) Wiberg bond orders for each atom

     #   Z sym  total        # sym  WBO       # sym  WBO       # sym  WBO
 ---------------------------------------------------------------------------
     1   6 C    3.766 --     5 F    0.940     4 F    0.940     3 F    0.918
                             2 C    0.902
     2   6 C    3.976 --     6 O    1.136     7 H    0.939     8 H    0.937
                             1 C    0.902
     3   9 F    1.032 --     1 C    0.918
     4   9 F    1.054 --     1 C    0.940
     5   9 F    1.054 --     1 C    0.940
     6   8 O    1.417 --     2 C    1.136
     7   1 H    1.000 --     2 C    0.939
     8   1 H    0.999 --     2 C    0.937
     9   8 O    1.745 --    11 H    0.881    10 H    0.818
    10   1 H    0.910 --     9 O    0.818
    11   1 H    0.882 --     9 O    0.881
 ---------------------------------------------------------------------------

molecular dipole:
                 x           y           z       tot (Debye)
 q only:        9.060       5.463      -1.543
   full:        9.294       5.436      -1.697      27.706

 projected vibrational frequencies (cm⁻¹)
eigval :       -0.00    -0.00    -0.00    -0.00     0.00     0.00
eigval :      -15.15    40.44    69.70    86.79   154.58   273.76
eigval :      298.16   411.88   465.77   483.04   543.79   610.23
eigval :      761.14   826.41   920.72   984.83  1076.69  1127.69
eigval :     1159.65  1238.92  1319.07  1464.36  1542.81  2579.39
eigval :     2665.21  2834.58  3606.45

   temp. (K)  partition function   enthalpy   heat capacity  entropy
                                   cal/mol     cal/K/mol   cal/K/mol   J/K/mol
 298.15  VIB  0.495E+04             3965.749     20.879     26.455
         ROT  0.365E+06              888.752      2.981     28.433
         INT  0.180E+10             4854.502     23.860     54.888
         TR   0.123E+28             1481.254      4.968     40.169
         TOT                        6335.7556    28.8283    95.0567   397.7173

       T/K    H(0)-H(T)+PV         H(T)/Eh          T*S/Eh         G(T)/Eh
   ------------------------------------------------------------------------
    298.15    0.100967E-01    0.728857E-01    0.451645E-01    0.277212E-01
   ------------------------------------------------------------------------

         :::::::::::::::::::::::::::::::::::::::::::::::::::::
         ::                  THERMODYNAMIC                  ::
         :::::::::::::::::::::::::::::::::::::::::::::::::::::
         :: total free energy         -28.932755969631 Eh   ::
         ::.................................................::
         :: total energy              -28.960477159134 Eh   ::
         :: zero point energy           0.062789038972 Eh   ::
         :: G(RRHO) w/o ZPVE           -0.035067849469 Eh   ::
         :: G(RRHO) contrib.            0.027721189503 Eh   ::
         :::::::::::::::::::::::::::::::::::::::::::::::::::::

           -------------------------------------------------
          | TOTAL ENERGY              -28.960477159134 Eh   |
          | TOTAL ENTHALPY            -28.887591450994 Eh   |
          | TOTAL FREE ENERGY         -28.932755969631 Eh   |
          | GRADIENT NORM               0.000375868271 Eh/α |
          | HOMO-LUMO GAP               9.940112808302 eV   |
           -------------------------------------------------

 * finished run on 2025/10/18 at 07:20:41.225
normal termination of xtb
