   * xtb version 6.7.1 (edcfbbe) compiled by 'albert@albert-system' on 2024-07-22

   ID    Z sym.   atoms
    1    6 C      1, 2
    2    9 F      3-5
    3    8 O      6, 9
    4    1 H      7, 8, 10, 11

          program call               : xtb tb_lite_results_shiftn0p2_gp347_b0_rot90_complex.xyz --ohess --chrg -1 --alpb water
      * Solvation model:               ALPB
        Solvent                        water
        Solvent mass                       1.8000E+01 g/mol
          :  Hamiltonian                  GFN2-xTB          :
 * total energy  :   -28.9547385 Eh     change       -0.9069012E-10 Eh
 * total energy  :   -28.9583977 Eh     change       -0.3659268E-02 Eh
 * total energy  :   -28.9588856 Eh     change       -0.4878201E-03 Eh
 * total energy  :   -28.9590468 Eh     change       -0.1612034E-03 Eh
 * total energy  :   -28.9591369 Eh     change       -0.9015496E-04 Eh
 * total energy  :   -28.9591906 Eh     change       -0.5372179E-04 Eh
 * total energy  :   -28.9592539 Eh     change       -0.6331180E-04 Eh
 * total energy  :   -28.9593055 Eh     change       -0.5156745E-04 Eh
 * total energy  :   -28.9593651 Eh     change       -0.5958024E-04 Eh
 * total energy  :   -28.9594562 Eh     change       -0.9109928E-04 Eh
 * total energy  :   -28.9603657 Eh     change       -0.6213837E-05 Eh
 * total energy  :   -28.9603721 Eh     change       -0.6442908E-05 Eh
 * total energy  :   -28.9603766 Eh     change       -0.4413352E-05 Eh
 * total energy  :   -28.9603819 Eh     change       -0.5359438E-05 Eh
 * total energy  :   -28.9603849 Eh     change       -0.2941849E-05 Eh
 * total energy  :   -28.9603885 Eh     change       -0.3606730E-05 Eh
 * total energy  :   -28.9603864 Eh     change        0.2068332E-05 Eh
 * total energy  :   -28.9603919 Eh     change       -0.5544190E-05 Eh
 * total energy  :   -28.9603924 Eh     change       -0.4722963E-06 Eh
   *** GEOMETRY OPTIMIZATION CONVERGED AFTER 39 ITERATIONS ***

 final structure:
================
11
 xtb: 6.7.1 (edcfbbe)
C           -2.95623241452761       -3.15944714159394        0.10737387092767
C           -4.47769816293584       -3.08627214257194        0.33689688876457
F           -2.58855219335443       -4.20094098845992       -0.68602562924812
F           -2.44844743097480       -2.06738338305408       -0.49807341995621
F           -2.24235989103776       -3.31262678543857        1.23795589185321
O           -4.82222624044890       -2.06919069942593        1.12454392324177
H           -4.74550312962918       -4.09011245102557        0.74323115386113
H           -4.90700524807221       -3.02052579863743       -0.69297034250969
O           -5.63266612542077       -2.87828770900436        3.48410366161078
H           -5.36106109206418       -2.55281421024907        2.57997247900566
H           -5.29726839506444       -2.20911920894215        4.08989465075539

          :  Hamiltonian                  GFN2-xTB          :
         :: gradient norm              0.000601200387 Eh/a0 ::
         :: HOMO-LUMO gap              9.968586205286 eV    ::
         :: SCC energy               -29.071651126088 Eh    ::
         :: -> dispersion             -0.005513660307 Eh    ::
         :: -> Gsolv                  -0.103919680439 Eh    ::
         :: repulsion energy           0.111258709806 Eh    ::

    * Orbital Energies and Occupations

         #    Occupation            Energy/Eh            Energy/eV
      -------------------------------------------------------------
         1        2.0000           -0.8831095             -24.0306
       ...           ...                  ...                  ...
        11        2.0000           -0.5539578             -15.0740
        12        2.0000           -0.5529191             -15.0457
        13        2.0000           -0.5407049             -14.7133
        14        2.0000           -0.5391696             -14.6716
        15        2.0000           -0.5388855             -14.6638
        16        2.0000           -0.5314321             -14.4610
        17        2.0000           -0.5092614             -13.8577
        18        2.0000           -0.5016879             -13.6516
        19        2.0000           -0.4863089             -13.2331
        20        2.0000           -0.4701691             -12.7940
        21        2.0000           -0.4126951             -11.2300
        22        2.0000           -0.3548135              -9.6550
        23        2.0000           -0.3500364              -9.5250 (HOMO)
        24                          0.0163024               0.4436 (LUMO)
        25                          0.0359241               0.9775
        26                          0.0458727               1.2483
        27                          0.1166452               3.1741
        28                          0.1333663               3.6291
        29                          0.1567573               4.2656
        30                          0.1948768               5.3029
        31                          0.2669277               7.2635
        32                          0.3423695               9.3163
      -------------------------------------------------------------
                  HL-Gap            0.3663389 Eh            9.9686 eV

     #   Z          covCN         q      C6AA      α(0)
     1   6 C        3.325     0.467    17.697     6.686
     2   6 C        3.670     0.140    18.536     6.172
     3   9 F        0.790    -0.245    11.709     4.042
     4   9 F        0.790    -0.229    11.542     4.013
     5   9 F        0.790    -0.227    11.517     4.009
     6   8 O        0.856    -0.793    31.365     7.509
     7   1 H        0.921    -0.019     3.406     2.886
     8   1 H        0.920    -0.025     3.531     2.939
     9   8 O        1.605    -0.712    28.046     7.147
    10   1 H        0.801     0.300     0.722     1.335
    11   1 H        0.805     0.343     0.605     1.221

Wiberg/Mayer (AO) data.
largest (>0.10) Wiberg bond orders for each atom

     #   Z sym  total        # sym  WBO       # sym  WBO       # sym  WBO
 ---------------------------------------------------------------------------
     1   6 C    3.764 --     5 F    0.941     4 F    0.938     3 F    0.918
                             2 C    0.899
     2   6 C    3.976 --     6 O    1.137     7 H    0.940     8 H    0.939
                             1 C    0.899
     3   9 F    1.032 --     1 C    0.918
     4   9 F    1.052 --     1 C    0.938
     5   9 F    1.055 --     1 C    0.941
     6   8 O    1.422 --     2 C    1.137
     7   1 H    1.000 --     2 C    0.940
     8   1 H    0.999 --     2 C    0.939
     9   8 O    1.746 --    11 H    0.882    10 H    0.817
    10   1 H    0.910 --     9 O    0.817
    11   1 H    0.882 --     9 O    0.882
 ---------------------------------------------------------------------------

molecular dipole:
                 x           y           z       tot (Debye)
 q only:        8.160       5.039      -2.069
   full:        8.314       4.976      -2.318      25.322

 projected vibrational frequencies (cm⁻¹)
eigval :       -0.00    -0.00    -0.00     0.00     0.00     0.00
eigval :       -0.60    41.10   105.27   152.97   180.84   286.84
eigval :      299.79   396.26   465.52   481.55   553.13   604.06
eigval :      754.83   855.29   921.58   985.26  1077.27  1126.04
eigval :     1156.62  1242.38  1319.58  1461.93  1552.42  2594.65
eigval :     2667.74  2820.54  3603.97

   temp. (K)  partition function   enthalpy   heat capacity  entropy
                                   cal/mol     cal/K/mol   cal/K/mol   J/K/mol
 298.15  VIB   144.                 3239.001     19.993     19.701
         ROT  0.342E+06              888.752      2.981     28.301
         INT  0.491E+08             4127.754     22.974     48.002
         TR   0.123E+28             1481.254      4.968     40.169
         TOT                        5609.0076    27.9420    88.1709   368.9072

       T/K    H(0)-H(T)+PV         H(T)/Eh          T*S/Eh         G(T)/Eh
   ------------------------------------------------------------------------
    298.15    0.893852E-02    0.720607E-01    0.418929E-01    0.301678E-01
   ------------------------------------------------------------------------

         :::::::::::::::::::::::::::::::::::::::::::::::::::::
         ::                  THERMODYNAMIC                  ::
         :::::::::::::::::::::::::::::::::::::::::::::::::::::
         :: total free energy         -28.930224575710 Eh   ::
         ::.................................................::
         :: total energy              -28.960392416488 Eh   ::
         :: zero point energy           0.063122173927 Eh   ::
         :: G(RRHO) w/o ZPVE           -0.032954333148 Eh   ::
         :: G(RRHO) contrib.            0.030167840779 Eh   ::
         :::::::::::::::::::::::::::::::::::::::::::::::::::::

           -------------------------------------------------
          | TOTAL ENERGY              -28.960392416488 Eh   |
          | TOTAL ENTHALPY            -28.888331720049 Eh   |
          | TOTAL FREE ENERGY         -28.930224575710 Eh   |
          | GRADIENT NORM               0.000601288298 Eh/α |
          | HOMO-LUMO GAP               9.968587620297 eV   |
           -------------------------------------------------

 * finished run on 2025/10/18 at 07:20:38.225
normal termination of xtb
