   * xtb version 6.7.1 (edcfbbe) compiled by 'albert@albert-system' on 2024-07-22

   ID    Z sym.   atoms
    1    6 C      1, 2
    2    9 F      3-5
    3    8 O      6, 9
    4    1 H      7, 8, 10, 11

          program call               : xtb tb_lite_results_shiftn0p2_gp370_b0_rot0_complex.xyz --ohess --chrg -1 --alpb water
      * Solvation model:               ALPB
        Solvent                        water
        Solvent mass                       1.8000E+01 g/mol
          :  Hamiltonian                  GFN2-xTB          :
 * total energy  :   -28.9566172 Eh     change       -0.7301182E-10 Eh
 * total energy  :   -28.9600723 Eh     change       -0.3455101E-02 Eh
 * total energy  :   -28.9604301 Eh     change       -0.3577781E-03 Eh
 * total energy  :   -28.9604647 Eh     change       -0.3460134E-04 Eh
 * total energy  :   -28.9604832 Eh     change       -0.1849263E-04 Eh
 * total energy  :   -28.9604913 Eh     change       -0.8052527E-05 Eh
 * total energy  :   -28.9604958 Eh     change       -0.4516617E-05 Eh
   *** GEOMETRY OPTIMIZATION CONVERGED AFTER 7 ITERATIONS ***

 final structure:
================
11
 xtb: 6.7.1 (edcfbbe)
C           -3.10522837472212       -2.93150386436141        0.31818917513780
C           -4.56877275966453       -3.40194957143204        0.30075095869868
F           -2.24072369146126       -3.86284677640422       -0.16633564229144
F           -2.88273286492896       -1.83142530737418       -0.42547024121976
F           -2.64566229540066       -2.63917783860315        1.54951591098588
O           -5.39404882859791       -2.47062088173709        0.77496572974468
H           -4.56312433592329       -4.35040672175538        0.89289114582328
H           -4.75948236396178       -3.68146164768424       -0.76388505988198
O           -7.92244252926725       -2.97012384346190        0.26873676314425
H           -6.96267174199717       -2.80580231403371        0.48713688318742
H           -8.31542606250126       -2.09152138841220        0.24549342317365

          :  Hamiltonian                  GFN2-xTB          :
         :: gradient norm              0.000551130693 Eh/a0 ::
         :: HOMO-LUMO gap              9.938123027449 eV    ::
         :: SCC energy               -29.071994351384 Eh    ::
         :: -> dispersion             -0.005384389332 Eh    ::
         :: -> Gsolv                  -0.103543876987 Eh    ::
         :: repulsion energy           0.111498577648 Eh    ::

    * Orbital Energies and Occupations

         #    Occupation            Energy/Eh            Energy/eV
      -------------------------------------------------------------
         1        2.0000           -0.8839258             -24.0528
       ...           ...                  ...                  ...
        11        2.0000           -0.5546375             -15.0925
        12        2.0000           -0.5535796             -15.0637
        13        2.0000           -0.5413051             -14.7297
        14        2.0000           -0.5398455             -14.6899
        15        2.0000           -0.5397847             -14.6883
        16        2.0000           -0.5289009             -14.3921
        17        2.0000           -0.5128884             -13.9564
        18        2.0000           -0.5018020             -13.6547
        19        2.0000           -0.4858436             -13.2205
        20        2.0000           -0.4705030             -12.8030
        21        2.0000           -0.4124417             -11.2231
        22        2.0000           -0.3548047              -9.6547
        23        2.0000           -0.3499879              -9.5237 (HOMO)
        24                          0.0152313               0.4145 (LUMO)
        25                          0.0363462               0.9890
        26                          0.0472366               1.2854
        27                          0.1157297               3.1492
        28                          0.1387283               3.7750
        29                          0.1577894               4.2937
        30                          0.1912991               5.2055
        31                          0.2672210               7.2715
        32                          0.3383771               9.2077
      -------------------------------------------------------------
                  HL-Gap            0.3652192 Eh            9.9381 eV

     #   Z          covCN         q      C6AA      α(0)
     1   6 C        3.326     0.468    17.667     6.679
     2   6 C        3.670     0.142    18.518     6.169
     3   9 F        0.790    -0.245    11.706     4.041
     4   9 F        0.790    -0.227    11.522     4.010
     5   9 F        0.790    -0.228    11.526     4.010
     6   8 O        0.856    -0.793    31.371     7.509
     7   1 H        0.920    -0.026     3.545     2.945
     8   1 H        0.920    -0.022     3.474     2.915
     9   8 O        1.605    -0.713    28.063     7.150
    10   1 H        0.801     0.300     0.722     1.335
    11   1 H        0.805     0.344     0.603     1.220

Wiberg/Mayer (AO) data.
largest (>0.10) Wiberg bond orders for each atom

     #   Z sym  total        # sym  WBO       # sym  WBO       # sym  WBO
 ---------------------------------------------------------------------------
     1   6 C    3.767 --     4 F    0.940     5 F    0.940     3 F    0.918
                             2 C    0.903
     2   6 C    3.976 --     6 O    1.136     8 H    0.939     7 H    0.938
                             1 C    0.903
     3   9 F    1.032 --     1 C    0.918
     4   9 F    1.054 --     1 C    0.940
     5   9 F    1.054 --     1 C    0.940
     6   8 O    1.417 --     2 C    1.136
     7   1 H    0.999 --     2 C    0.938
     8   1 H    1.000 --     2 C    0.939
     9   8 O    1.745 --    11 H    0.882    10 H    0.818
    10   1 H    0.910 --     9 O    0.818
    11   1 H    0.882 --     9 O    0.882
 ---------------------------------------------------------------------------

molecular dipole:
                 x           y           z       tot (Debye)
 q only:        9.274       5.324      -1.144
   full:        9.552       5.272      -1.214      27.903

 projected vibrational frequencies (cm⁻¹)
eigval :       -0.00    -0.00    -0.00    -0.00     0.00     0.00
eigval :     -172.28    -5.36    49.68    87.79   152.29   274.74
eigval :      299.23   415.04   466.06   483.60   521.41   611.46
eigval :      763.22   840.81   921.81   984.69  1076.75  1127.58
eigval :     1160.39  1239.81  1320.41  1465.78  1542.08  2579.46
eigval :     2664.02  2834.67  3603.41

   temp. (K)  partition function   enthalpy   heat capacity  entropy
                                   cal/mol     cal/K/mol   cal/K/mol   J/K/mol
 298.15  VIB  0.325E+04             3472.200     19.307     23.501
         ROT  0.367E+06              888.752      2.981     28.443
         INT  0.119E+10             4360.952     22.288     51.944
         TR   0.123E+28             1481.254      4.968     40.169
         TOT                        5842.2059    27.2559    92.1130   385.4007

       T/K    H(0)-H(T)+PV         H(T)/Eh          T*S/Eh         G(T)/Eh
   ------------------------------------------------------------------------
    298.15    0.931015E-02    0.719405E-01    0.437658E-01    0.281747E-01
   ------------------------------------------------------------------------

         :::::::::::::::::::::::::::::::::::::::::::::::::::::
         ::                  THERMODYNAMIC                  ::
         :::::::::::::::::::::::::::::::::::::::::::::::::::::
         :: total free energy         -28.932321092493 Eh   ::
         ::.................................................::
         :: total energy              -28.960495774353 Eh   ::
         :: zero point energy           0.062630380918 Eh   ::
         :: G(RRHO) w/o ZPVE           -0.034455699058 Eh   ::
         :: G(RRHO) contrib.            0.028174681860 Eh   ::
         :::::::::::::::::::::::::::::::::::::::::::::::::::::

           -------------------------------------------------
          | TOTAL ENERGY              -28.960495774353 Eh   |
          | TOTAL ENTHALPY            -28.888555245773 Eh   |
          | TOTAL FREE ENERGY         -28.932321092493 Eh   |
          | GRADIENT NORM               0.000551173170 Eh/α |
          | HOMO-LUMO GAP               9.938121347329 eV   |
           -------------------------------------------------

 * finished run on 2025/10/18 at 07:20:36.875
normal termination of xtb
