                         Program Version 5.0.4 -  RELEASE  -
|  1> !OPT PBE D3BJ def2-TZVP CPCM(water)
|  2>
|  3> *xyz -1 1
|  4> N -4.977829 -1.457749 -2.584150
|  5> C -5.262634 -2.881313 -2.650855
|  6> O -4.511634 0.972818 -2.117955
|  7> H -4.689049 0.047843 -2.295370
|  8> H -3.572722 1.070863 -2.276953
|  9> *
| 10>
| 11>                          ****END OF INPUT****
 Total Charge           Charge          ....   -1
 Multiplicity           Mult            ....    1
 Number of Electrons    NEL             ....   24
Dispersion correction           -0.001799698
FINAL SINGLE POINT ENERGY      -169.197251959537
Dispersion correction            ... done
Dispersion correction           -0.001821463
FINAL SINGLE POINT ENERGY      -169.260285893636
Dispersion correction            ... done
Dispersion correction           -0.001857991
FINAL SINGLE POINT ENERGY      -169.280344298389
Dispersion correction            ... done
FINAL SINGLE POINT ENERGY      -169.283614602121
FINAL SINGLE POINT ENERGY      -169.284260766718
FINAL SINGLE POINT ENERGY      -169.284434348003
FINAL SINGLE POINT ENERGY      -169.284491716497
FINAL SINGLE POINT ENERGY      -169.284501976767
FINAL SINGLE POINT ENERGY      -169.284504556352
FINAL SINGLE POINT ENERGY      -169.284511428851
FINAL SINGLE POINT ENERGY      -169.284522099950
FINAL SINGLE POINT ENERGY      -169.284534835768
FINAL SINGLE POINT ENERGY      -169.284543104148
FINAL SINGLE POINT ENERGY      -169.284545414907
FINAL SINGLE POINT ENERGY      -169.284547283120
Dispersion correction            ... done
Dispersion correction           -0.001754006
FINAL SINGLE POINT ENERGY      -169.284547965154
Dispersion correction            ... done
Dispersion correction           -0.001753863
FINAL SINGLE POINT ENERGY      -169.284548509097
Dispersion correction            ... done
                    ***********************HURRAY********************

CARTESIAN COORDINATES (ANGSTROEM)
---------------------------------
  N     -5.047285   -1.665356   -2.529088
  C     -5.235754   -2.815052   -2.707426
  O     -4.498113    1.044720   -2.137895
  H     -4.694780    0.075708   -2.279174
  H     -3.537937    1.112443   -2.271699

 Multiplicity           Mult            ....    1
 Number of Electrons    NEL             ....   24
 Basis Dimension        Dim             ....  105

ORBITAL ENERGIES
----------------

  NO   OCC          E(Eh)            E(eV)
   0   2.0000     -18.715945      -509.2868
   1   2.0000     -13.925644      -378.9360
   2   2.0000      -9.841477      -267.8002
   3   2.0000      -0.886552       -24.1243
   4   2.0000      -0.761391       -20.7185
   5   2.0000      -0.447375       -12.1737
   6   2.0000      -0.345326        -9.3968
   7   2.0000      -0.301173        -8.1953
   8   2.0000      -0.259955        -7.0737
   9   2.0000      -0.258815        -7.0427
  10   2.0000      -0.236625        -6.4389
  11   2.0000      -0.215342        -5.8598
  12   0.0000       0.031201         0.8490
  13   0.0000       0.032210         0.8765
  14   0.0000       0.041911         1.1405
  15   0.0000       0.122288         3.3276
  16   0.0000       0.167189         4.5494

MULLIKEN ATOMIC CHARGES
-----------------------
   0 N :   -0.282339
   1 C :   -0.624853
   2 O :   -0.735600
   3 H :    0.305618
   4 H :    0.337175
Sum of atomic charges:   -1.0000000

LOEWDIN ATOMIC CHARGES
----------------------
   0 N :   -0.236029
   1 C :   -0.634498
   2 O :   -0.397837
   3 H :    0.109059
   4 H :    0.159305

  Mayer bond orders larger than 0.100000
B(  0-N ,  1-C ) :   2.6762 B(  0-N ,  3-H ) :   0.1838 B(  2-O ,  3-H ) :   0.8138
B(  2-O ,  4-H ) :   0.8946

Dispersion correction           -0.001753804
FINAL SINGLE POINT ENERGY      -169.284548717634

DIPOLE MOMENT
-------------
                                X             Y             Z
Electronic contribution:     -0.33607      -1.23923      -0.16567
Nuclear contribution   :      1.39308       2.81057       0.28238
                        -----------------------------------------
Total Dipole Moment    :      1.05702       1.57135       0.11671
                        -----------------------------------------
Magnitude (a.u.)       :      1.89738
Magnitude (Debye)      :      4.82275

Rotational constants in cm-1:    19.569869     0.134342     0.133426
Rotational constants in MHz : 586689.917894  4027.460925  4000.009888

                             ****ORCA TERMINATED NORMALLY****
TOTAL RUN TIME: 0 days 0 hours 2 minutes 52 seconds 507 msec
