   * xtb version 6.7.1 (edcfbbe) compiled by 'albert@albert-system' on 2024-07-22

   ID    Z sym.   atoms
    1    8 O      1, 2
    2    1 H      3

          program call               : xtb xyz.xyz --charge -1 --ohess
          :  Hamiltonian                  GFN2-xTB          :
 * total energy  :    -8.7058994 Eh     change       -0.1243450E-13 Eh
 * total energy  :    -8.7084074 Eh     change       -0.2507978E-02 Eh
 * total energy  :    -8.7092670 Eh     change       -0.8596267E-03 Eh
 * total energy  :    -8.7093083 Eh     change       -0.4127081E-04 Eh
 * total energy  :    -8.7093122 Eh     change       -0.3883019E-05 Eh
   *** GEOMETRY OPTIMIZATION CONVERGED AFTER 5 ITERATIONS ***

 final structure:
================
3
 xtb: 6.7.1 (edcfbbe)
O           -2.94372884919628       -4.48069387933473        2.79181822971222
O           -4.17144813419014       -5.22495249486929        2.54192289134059
H           -2.40477301661357       -4.77938462579597        2.05194187894719

          :  Hamiltonian                  GFN2-xTB          :
         :: gradient norm              0.000335696771 Eh/a0 ::
         :: HOMO-LUMO gap              6.527475129542 eV    ::
         :: SCC energy                -8.726212007552 Eh    ::
         :: -> dispersion             -0.000485484719 Eh    ::
         :: repulsion energy           0.016899817751 Eh    ::

    * Orbital Energies and Occupations

         #    Occupation            Energy/Eh            Energy/eV
      -------------------------------------------------------------
         1        2.0000           -0.4154105             -11.3039
         2        2.0000           -0.3266142              -8.8876
         3        2.0000           -0.2920813              -7.9479
         4        2.0000           -0.2240075              -6.0956
         5        2.0000           -0.2081445              -5.6639
         6        2.0000           -0.0775237              -2.1095
         7        2.0000           -0.0650224              -1.7693 (HOMO)
         8                          0.1748579               4.7581 (LUMO)
         9                          0.3922139              10.6727
      -------------------------------------------------------------
                  HL-Gap            0.2398803 Eh            6.5275 eV

     #   Z          covCN         q      C6AA      α(0)
     1   8 O        1.708    -0.481    22.476     6.401
     2   8 O        0.903    -0.727    29.427     7.274
     3   1 H        0.805     0.209     1.075     1.628

Wiberg/Mayer (AO) data.
largest (>0.10) Wiberg bond orders for each atom

     #   Z sym  total        # sym  WBO       # sym  WBO       # sym  WBO
 ---------------------------------------------------------------------------
     1   8 O    1.883 --     3 H    0.953     2 O    0.930
     2   8 O    0.933 --     1 O    0.930
     3   1 H    0.956 --     1 O    0.953
 ---------------------------------------------------------------------------

molecular dipole:
                 x           y           z       tot (Debye)
 q only:        7.462       9.372      -5.224
   full:        7.730       9.381      -5.378      33.786

 projected vibrational frequencies (cm⁻¹)
eigval :       -0.00    -0.00    -0.00     0.00     0.00     0.00
eigval :      998.31  1169.12  3539.10

   temp. (K)  partition function   enthalpy   heat capacity  entropy
                                   cal/mol     cal/K/mol   cal/K/mol   J/K/mol
 298.15  VIB   1.01                   35.169      0.605      0.141
         ROT  0.127E+04              888.752      2.981     17.188
         INT  0.129E+04              923.921      3.586     17.329
         TR   0.183E+27             1481.254      4.968     36.397
         TOT                        2405.1749     8.5541    53.7269   224.7933

       T/K    H(0)-H(T)+PV         H(T)/Eh          T*S/Eh         G(T)/Eh
   ------------------------------------------------------------------------
    298.15    0.383289E-02    0.168333E-01    0.255274E-01   -0.869406E-02
   ------------------------------------------------------------------------

         :::::::::::::::::::::::::::::::::::::::::::::::::::::
         ::                  THERMODYNAMIC                  ::
         :::::::::::::::::::::::::::::::::::::::::::::::::::::
         :: total free energy          -8.718006246420 Eh   ::
         ::.................................................::
         :: total energy               -8.709312189800 Eh   ::
         :: zero point energy           0.013000436978 Eh   ::
         :: G(RRHO) w/o ZPVE           -0.021694493598 Eh   ::
         :: G(RRHO) contrib.           -0.008694056619 Eh   ::
         :::::::::::::::::::::::::::::::::::::::::::::::::::::

           -------------------------------------------------
          | TOTAL ENERGY               -8.709312189800 Eh   |
          | TOTAL ENTHALPY             -8.692478862652 Eh   |
          | TOTAL FREE ENERGY          -8.718006246420 Eh   |
          | GRADIENT NORM               0.000335718537 Eh/α |
          | HOMO-LUMO GAP               6.527475535867 eV   |
           -------------------------------------------------

 * finished run on 2025/10/18 at 04:59:45.210
