   * xtb version 6.7.1 (edcfbbe) compiled by 'albert@albert-system' on 2024-07-22

   ID    Z sym.   atoms
    1    6 C      1-3
    2    8 O      4
    3    1 H      5-9

          program call               : xtb xyz.xyz --charge -1 --alpb water --ohess
      * Solvation model:               ALPB
        Solvent                        water
        Solvent mass                       1.8000E+01 g/mol
          :  Hamiltonian                  GFN2-xTB          :
 * total energy  :   -13.2897786 Eh     change       -0.5141629E-09 Eh
 * total energy  :   -13.2929280 Eh     change       -0.3149388E-02 Eh
 * total energy  :   -13.2932728 Eh     change       -0.3447901E-03 Eh
 * total energy  :   -13.2933092 Eh     change       -0.3644346E-04 Eh
 * total energy  :   -13.2933140 Eh     change       -0.4752114E-05 Eh
 * total energy  :   -13.2933150 Eh     change       -0.1033589E-05 Eh
   *** GEOMETRY OPTIMIZATION CONVERGED AFTER 6 ITERATIONS ***

 final structure:
================
9
 xtb: 6.7.1 (edcfbbe)
C           -3.79828941070544       -0.62559931323398       -0.74616170519392
C           -2.70618512402872        0.16923894780026       -0.78126762371778
C           -1.39623550149643       -0.38943979953150       -0.20930907627409
O           -2.66656753212499        1.36891827031722       -1.25846018387056
H           -3.76663212901987       -1.62123953607900       -0.33297992401201
H           -4.74815924187764       -0.28687145570258       -1.13404062597045
H           -1.53460703066436       -1.39924290612742        0.16649412770672
H           -0.63580171473411       -0.38828556014736       -0.98956244627185
H           -1.05193131534845        0.25885535270436        0.59580045760394

          :  Hamiltonian                  GFN2-xTB          :
         :: gradient norm              0.000411458011 Eh/a0 ::
         :: HOMO-LUMO gap              4.789619966388 eV    ::
         :: SCC energy               -13.456193025409 Eh    ::
         :: -> dispersion             -0.004560356787 Eh    ::
         :: -> Gsolv                  -0.107133341092 Eh    ::
         :: repulsion energy           0.162878026374 Eh    ::

    * Orbital Energies and Occupations

         #    Occupation            Energy/Eh            Energy/eV
      -------------------------------------------------------------
         1        2.0000           -0.6084557             -16.5569
         2        2.0000           -0.5764391             -15.6857
         3        2.0000           -0.5474419             -14.8967
         4        2.0000           -0.5004359             -13.6176
         5        2.0000           -0.4683883             -12.7455
         6        2.0000           -0.4675634             -12.7230
         7        2.0000           -0.4569289             -12.4337
         8        2.0000           -0.4203465             -11.4382
         9        2.0000           -0.4064006             -11.0587
        10        2.0000           -0.4043634             -11.0033
        11        2.0000           -0.3171533              -8.6302
        12        2.0000           -0.2944046              -8.0112 (HOMO)
        13                         -0.1183892              -3.2215 (LUMO)
        14                          0.1329113               3.6167
        15                          0.1697838               4.6201
        16                          0.2023157               5.5053
        17                          0.2244922               6.1087
        18                          0.2354483               6.4069
        19                          0.2957284               8.0472
        20                          0.5002476              13.6124
        21                          0.6393764              17.3983
      -------------------------------------------------------------
                  HL-Gap            0.1760154 Eh            4.7896 eV

     #   Z          covCN         q      C6AA      α(0)
     1   6 C        2.839    -0.205    33.418     9.474
     2   6 C        2.810     0.148    24.782     8.156
     3   6 C        3.755    -0.108    22.625     6.782
     4   8 O        0.857    -0.760    30.391     7.391
     5   1 H        0.926    -0.054     4.186     3.200
     6   1 H        0.926    -0.060     4.349     3.261
     7   1 H        0.925     0.012     2.865     2.647
     8   1 H        0.925     0.014     2.829     2.630
     9   1 H        0.925     0.014     2.829     2.630

Wiberg/Mayer (AO) data.
largest (>0.10) Wiberg bond orders for each atom

     #   Z sym  total        # sym  WBO       # sym  WBO       # sym  WBO
 ---------------------------------------------------------------------------
     1   6 C    3.867 --     2 C    1.658     5 H    0.979     6 H    0.977
                             4 O    0.218
     2   6 C    3.964 --     1 C    1.658     4 O    1.334     3 C    0.968
     3   6 C    3.993 --     7 H    0.990     9 H    0.983     8 H    0.983
                             2 C    0.968
     4   8 O    1.624 --     2 C    1.334     1 C    0.218
     5   1 H    0.997 --     1 C    0.979
     6   1 H    0.996 --     1 C    0.977
     7   1 H    1.000 --     3 C    0.990
     8   1 H    1.000 --     3 C    0.983
     9   1 H    1.000 --     3 C    0.983
 ---------------------------------------------------------------------------

molecular dipole:
                 x           y           z       tot (Debye)
 q only:        5.675      -1.433       2.077
   full:        5.713      -1.612       2.160      16.056

 projected vibrational frequencies (cm⁻¹)
eigval :       -0.00    -0.00    -0.00    -0.00     0.00     0.00
eigval :       71.79   419.09   487.28   495.10   611.57   682.18
eigval :      858.05   986.45  1002.91  1035.09  1281.48  1357.06
eigval :     1418.06  1477.58  1497.91  1657.88  2983.50  2999.39
eigval :     3019.05  3031.44  3042.13

   temp. (K)  partition function   enthalpy   heat capacity  entropy
                                   cal/mol     cal/K/mol   cal/K/mol   J/K/mol
 298.15  VIB   5.50                 1272.525      9.867      7.479
         ROT  0.382E+05              888.752      2.981     23.947
         INT  0.210E+06             2161.277     12.848     31.426
         TR   0.417E+27             1481.254      4.968     38.029
         TOT                        3642.5312    17.8160    69.4549   290.5994

       T/K    H(0)-H(T)+PV         H(T)/Eh          T*S/Eh         G(T)/Eh
   ------------------------------------------------------------------------
    298.15    0.580474E-02    0.750952E-01    0.330003E-01    0.420949E-01
   ------------------------------------------------------------------------

         :::::::::::::::::::::::::::::::::::::::::::::::::::::
         ::                  THERMODYNAMIC                  ::
         :::::::::::::::::::::::::::::::::::::::::::::::::::::
         :: total free energy         -13.251220120671 Eh   ::
         ::.................................................::
         :: total energy              -13.293314999158 Eh   ::
         :: zero point energy           0.069290411716 Eh   ::
         :: G(RRHO) w/o ZPVE           -0.027195533228 Eh   ::
         :: G(RRHO) contrib.            0.042094878487 Eh   ::
         :::::::::::::::::::::::::::::::::::::::::::::::::::::

           -------------------------------------------------
          | TOTAL ENERGY              -13.293314999158 Eh   |
          | TOTAL ENTHALPY            -13.218219844563 Eh   |
          | TOTAL FREE ENERGY         -13.251220120671 Eh   |
          | GRADIENT NORM               0.000411192407 Eh/α |
          | HOMO-LUMO GAP               4.789623915298 eV   |
           -------------------------------------------------

 * finished run on 2025/10/18 at 01:56:01.146
