                         Program Version 5.0.4 -  RELEASE  -
|  1> !OPT PBE D3BJ def2-TZVP CPCM(water)
|  2>
|  3> *xyz -1 1
|  4> C     -7.135065   -4.408649    1.593848
|  5> H     -7.892421   -3.620659    1.537139
|  6> O     -7.634223   -5.613817    1.035649
|  7> H     -6.225232   -4.095843    1.072224
|  8> H     -6.892962   -4.587436    2.644767
|  9> O     -7.921586   -5.309305   -0.306079
| 10> *
| 11>
| 12>                          ****END OF INPUT****
 Total Charge           Charge          ....   -1
 Multiplicity           Mult            ....    1
 Number of Electrons    NEL             ....   26
Dispersion correction           -0.002226308
FINAL SINGLE POINT ENERGY      -190.235664870556
Dispersion correction            ... done
Dispersion correction           -0.002211699
FINAL SINGLE POINT ENERGY      -190.239068269096
Dispersion correction            ... done
Dispersion correction           -0.002209817
FINAL SINGLE POINT ENERGY      -190.239631913042
Dispersion correction            ... done
FINAL SINGLE POINT ENERGY      -190.239713144415
Dispersion correction            ... done
Dispersion correction           -0.002210485
FINAL SINGLE POINT ENERGY      -190.239718465845
Dispersion correction            ... done
Dispersion correction           -0.002210528
FINAL SINGLE POINT ENERGY      -190.239719642585
Dispersion correction            ... done
                    ***********************HURRAY********************

CARTESIAN COORDINATES (ANGSTROEM)
---------------------------------
  C     -7.134495   -4.412905    1.601722
  H     -7.883305   -3.594435    1.543463
  O     -7.627983   -5.608386    1.062111
  H     -6.218287   -4.070213    1.075738
  H     -6.891864   -4.606042    2.663045
  O     -7.945555   -5.343727   -0.368530

 Multiplicity           Mult            ....    1
 Number of Electrons    NEL             ....   26
 Basis Dimension        Dim             ....  111

ORBITAL ENERGIES
----------------

  NO   OCC          E(Eh)            E(eV)
   0   2.0000     -18.738797      -509.9086
   1   2.0000     -18.651225      -507.5256
   2   2.0000      -9.893720      -269.2218
   3   2.0000      -0.916598       -24.9419
   4   2.0000      -0.690732       -18.7958
   5   2.0000      -0.553218       -15.0538
   6   2.0000      -0.374178       -10.1819
   7   2.0000      -0.365924        -9.9573
   8   2.0000      -0.356729        -9.7071
   9   2.0000      -0.264196        -7.1891
  10   2.0000      -0.225538        -6.1372
  11   2.0000      -0.132420        -3.6033
  12   2.0000      -0.106853        -2.9076
  13   0.0000       0.040449         1.1007
  14   0.0000       0.055869         1.5203
  15   0.0000       0.097163         2.6439
  16   0.0000       0.117855         3.2070
  17   0.0000       0.119811         3.2602

MULLIKEN ATOMIC CHARGES
-----------------------
   0 C :   -0.178697
   1 H :    0.064792
   2 O :   -0.269519
   3 H :    0.064585
   4 H :    0.097337
   5 O :   -0.778498
Sum of atomic charges:   -1.0000000

LOEWDIN ATOMIC CHARGES
----------------------
   0 C :   -0.481014
   1 H :    0.076489
   2 O :   -0.075712
   3 H :    0.076443
   4 H :    0.101721
   5 O :   -0.697929

  Mayer bond orders larger than 0.100000
B(  0-C ,  1-H ) :   0.9547 B(  0-C ,  2-O ) :   1.0856 B(  0-C ,  3-H ) :   0.9545
B(  0-C ,  4-H ) :   0.9378 B(  2-O ,  5-O ) :   0.8386

Dispersion correction           -0.002210468
FINAL SINGLE POINT ENERGY      -190.239719885633

DIPOLE MOMENT
-------------
                                X             Y             Z
Electronic contribution:     -0.89148      -2.07417      -1.06913
Nuclear contribution   :      1.60250       2.87485       2.80959
                        -----------------------------------------
Total Dipole Moment    :      0.71103       0.80069       1.74047
                        -----------------------------------------
Magnitude (a.u.)       :      2.04350
Magnitude (Debye)      :      5.19416

Rotational constants in cm-1:     1.525761     0.361555     0.309707
Rotational constants in MHz : 45741.165044 10839.138610  9284.780930

                             ****ORCA TERMINATED NORMALLY****
TOTAL RUN TIME: 0 days 0 hours 1 minutes 51 seconds 962 msec
