                         Program Version 5.0.4 -  RELEASE  -
|  1> !OPT PBE D3BJ def2-TZVP CPCM(water)
|  2>
|  3> *xyz -1 2
|  4> O     -3.032813   -4.552245    2.749850
|  5> O     -4.137289   -5.180783    2.580746
|  6> *
|  7>
|  8>                          ****END OF INPUT****
 Total Charge           Charge          ....   -1
 Multiplicity           Mult            ....    2
 Number of Electrons    NEL             ....   17
Dispersion correction           -0.000267033
FINAL SINGLE POINT ENERGY      -150.365978312336
Dispersion correction            ... done
Dispersion correction           -0.000267000
FINAL SINGLE POINT ENERGY      -150.370301362682
Dispersion correction            ... done
Dispersion correction           -0.000267008
FINAL SINGLE POINT ENERGY      -150.370784010918
Dispersion correction            ... done
Dispersion correction           -0.000267013
FINAL SINGLE POINT ENERGY      -150.370805448299
Dispersion correction            ... done
Dispersion correction           -0.000267013
FINAL SINGLE POINT ENERGY      -150.370805589840
Dispersion correction            ... done
                    ***********************HURRAY********************

CARTESIAN COORDINATES (ANGSTROEM)
---------------------------------
  O     -2.999692   -4.533396    2.754921
  O     -4.170410   -5.199632    2.575675

 Multiplicity           Mult            ....    2
 Number of Electrons    NEL             ....   17
 Basis Dimension        Dim             ....   62

ORBITAL ENERGIES
----------------
                 SPIN UP ORBITALS
  NO   OCC          E(Eh)            E(eV)
   0   1.0000     -18.710612      -509.1416
   1   1.0000     -18.710574      -509.1406
   2   1.0000      -0.935468       -25.4554
   3   1.0000      -0.623192       -16.9579
   4   1.0000      -0.326633        -8.8881
   5   1.0000      -0.309951        -8.4342
   6   1.0000      -0.273718        -7.4482
   7   1.0000      -0.136008        -3.7010
   8   1.0000      -0.096063        -2.6140
   9   0.0000       0.120522         3.2796
  10   0.0000       0.343711         9.3528
  11   0.0000       0.395332        10.7575
  12   0.0000       0.398983        10.8569
  13   0.0000       0.413310        11.2467

                 SPIN DOWN ORBITALS
  NO   OCC          E(Eh)            E(eV)
   0   1.0000     -18.698396      -508.8092
   1   1.0000     -18.698362      -508.8083
   2   1.0000      -0.912317       -24.8254
   3   1.0000      -0.591537       -16.0965
   4   1.0000      -0.312344        -8.4993
   5   1.0000      -0.263998        -7.1837
   6   1.0000      -0.256618        -6.9829
   7   1.0000      -0.083820        -2.2809
   8   0.0000      -0.071149        -1.9361
   9   0.0000       0.136201         3.7062
  10   0.0000       0.353304         9.6139
  11   0.0000       0.404251        11.0002
  12   0.0000       0.417585        11.3631

MULLIKEN ATOMIC CHARGES AND SPIN POPULATIONS
--------------------------------------------
   0 O :   -0.500023    0.499986
   1 O :   -0.499977    0.500014
Sum of atomic charges         :   -1.0000000

LOEWDIN ATOMIC CHARGES AND SPIN POPULATIONS
-------------------------------------------
   0 O :   -0.500022    0.499987
   1 O :   -0.499978    0.500013

  Mayer bond orders larger than 0.100000
B(  0-O ,  1-O ) :   1.3223

Dispersion correction           -0.000267013
FINAL SINGLE POINT ENERGY      -150.370805594979

DIPOLE MOMENT
-------------
                                X             Y             Z
Electronic contribution:     -0.00005      -0.00003      -0.00001
Nuclear contribution   :      0.00000       0.00000       0.00000
                        -----------------------------------------
Total Dipole Moment    :     -0.00005      -0.00003      -0.00001
                        -----------------------------------------
Magnitude (a.u.)       :      0.00006
Magnitude (Debye)      :      0.00015

Rotational constants in cm-1:     0.000000     1.141211     1.141211
Rotational constants in MHz :     0.000000 34212.649808 34212.649808

                             ****ORCA TERMINATED NORMALLY****
TOTAL RUN TIME: 0 days 0 hours 0 minutes 30 seconds 300 msec
