                         Program Version 5.0.4 -  RELEASE  -
|  1> !OPT PBE D3BJ def2-TZVP CPCM(water)
|  2>
|  3> *xyz -1 1
|  4> C     -6.315833   -4.191771    0.860061
|  5> C     -7.397422   -4.641526    1.486967
|  6> H     -6.147333   -4.442538   -0.178270
|  7> H     -5.591560   -3.571455    1.375534
|  8> O     -7.442128   -4.269594    2.644177
|  9> H     -8.129217   -5.273200    0.961864
| 10> *
| 11>
| 12>                          ****END OF INPUT****
 Total Charge           Charge          ....   -1
 Multiplicity           Mult            ....    1
 Number of Electrons    NEL             ....   24
Dispersion correction           -0.002753793
FINAL SINGLE POINT ENERGY      -153.188869522191
Dispersion correction            ... done
Dispersion correction           -0.002717917
FINAL SINGLE POINT ENERGY      -153.216018872182
Dispersion correction            ... done
Dispersion correction           -0.002707136
FINAL SINGLE POINT ENERGY      -153.218512014781
Dispersion correction            ... done
FINAL SINGLE POINT ENERGY      -153.218875126422
FINAL SINGLE POINT ENERGY      -153.218908405136
FINAL SINGLE POINT ENERGY      -153.218919315274
Dispersion correction            ... done
Dispersion correction           -0.002703731
FINAL SINGLE POINT ENERGY      -153.218922054076
Dispersion correction            ... done
Dispersion correction           -0.002703668
FINAL SINGLE POINT ENERGY      -153.218923053250
Dispersion correction            ... done
                    ***********************HURRAY********************

CARTESIAN COORDINATES (ANGSTROEM)
---------------------------------
  C     -6.268289   -4.175343    0.820124
  C     -7.361164   -4.597332    1.550071
  H     -6.161120   -4.470126   -0.225943
  H     -5.490875   -3.545588    1.265728
  O     -7.665042   -4.362584    2.778344
  H     -8.077003   -5.239110    0.962010

 Multiplicity           Mult            ....    1
 Number of Electrons    NEL             ....   24
 Basis Dimension        Dim             ....  111

ORBITAL ENERGIES
----------------

  NO   OCC          E(Eh)            E(eV)
   0   2.0000     -18.658221      -507.7160
   1   2.0000      -9.888434      -269.0780
   2   2.0000      -9.816488      -267.1202
   3   2.0000      -0.850614       -23.1464
   4   2.0000      -0.607984       -16.5441
   5   2.0000      -0.450020       -12.2457
   6   2.0000      -0.368096       -10.0164
   7   2.0000      -0.327612        -8.9148
   8   2.0000      -0.286666        -7.8006
   9   2.0000      -0.278093        -7.5673
  10   2.0000      -0.156411        -4.2562
  11   2.0000      -0.137355        -3.7376
  12   0.0000       0.037658         1.0247
  13   0.0000       0.070490         1.9181
  14   0.0000       0.085540         2.3277
  15   0.0000       0.116930         3.1818
  16   0.0000       0.128224         3.4892

MULLIKEN ATOMIC CHARGES
-----------------------
   0 C :   -0.544525
   1 C :    0.025574
   2 H :    0.096006
   3 H :    0.069345
   4 O :   -0.628208
   5 H :   -0.018191
Sum of atomic charges:   -1.0000000

LOEWDIN ATOMIC CHARGES
----------------------
   0 C :   -0.495786
   1 C :   -0.538590
   2 H :    0.100161
   3 H :    0.091390
   4 O :   -0.237063
   5 H :    0.079888

  Mayer bond orders larger than 0.100000
B(  0-C ,  1-C ) :   1.5919 B(  0-C ,  2-H ) :   0.9452 B(  0-C ,  3-H ) :   0.9508
B(  1-C ,  4-O ) :   1.7102 B(  1-C ,  5-H ) :   0.9340

Dispersion correction           -0.002703565
FINAL SINGLE POINT ENERGY      -153.218923260701

DIPOLE MOMENT
-------------
                                X             Y             Z
Electronic contribution:     -1.34520      -0.06769       2.21283
Nuclear contribution   :      1.50520      -0.10817      -3.00643
                        -----------------------------------------
Total Dipole Moment    :      0.16000      -0.17585      -0.79360
                        -----------------------------------------
Magnitude (a.u.)       :      0.82845
Magnitude (Debye)      :      2.10575

Rotational constants in cm-1:     2.459330     0.359121     0.313362
Rotational constants in MHz : 73728.846824 10766.165877  9394.366018

                             ****ORCA TERMINATED NORMALLY****
TOTAL RUN TIME: 0 days 0 hours 2 minutes 17 seconds 886 msec
