   * xtb version 6.7.1 (edcfbbe) compiled by 'albert@albert-system' on 2024-07-22

   ID    Z sym.   atoms
    1    7 N      1
    2    6 C      2
    3    1 H      3, 5
    4    8 O      4, 6

          program call               : xtb xyz.xyz --charge -1 --ohess
          :  Hamiltonian                  GFN2-xTB          :
 * total energy  :   -14.3114300 Eh     change       -0.6981971E-10 Eh
 * total energy  :   -14.3217688 Eh     change       -0.1033888E-01 Eh
 * total energy  :   -14.3185606 Eh     change        0.3208254E-02 Eh
 * total energy  :   -14.3254224 Eh     change       -0.6861797E-02 Eh
 * total energy  :   -14.3255014 Eh     change       -0.7902167E-04 Eh
 * total energy  :   -14.3256247 Eh     change       -0.1232571E-03 Eh
 * total energy  :   -14.3256294 Eh     change       -0.4734237E-05 Eh
   *** GEOMETRY OPTIMIZATION CONVERGED AFTER 7 ITERATIONS ***

 final structure:
================
6
 xtb: 6.7.1 (edcfbbe)
N           -6.59538034200512       -2.95191763001116        3.29779150450421
C           -5.55981575465866       -2.68625674141635        2.54338906645712
H           -5.69185342669167       -2.59334756334640        1.48081139676904
O           -7.74305688315162       -3.09534901276900        2.77303794180119
H           -4.59318239505476       -2.56762576715991        2.99802673543566
O           -6.45283419843817       -3.06512828529717        4.55475635503277

          :  Hamiltonian                  GFN2-xTB          :
         :: gradient norm              0.000827794264 Eh/a0 ::
         :: HOMO-LUMO gap              3.991674372599 eV    ::
         :: SCC energy               -14.416246318843 Eh    ::
         :: -> dispersion             -0.002732580627 Eh    ::
         :: repulsion energy           0.090616925489 Eh    ::

    * Orbital Energies and Occupations

         #    Occupation            Energy/Eh            Energy/eV
      -------------------------------------------------------------
         1        2.0000           -0.4829412             -13.1415
         2        2.0000           -0.4671756             -12.7125
         3        2.0000           -0.4332596             -11.7896
         4        2.0000           -0.3643802              -9.9153
         5        2.0000           -0.3563416              -9.6965
         6        2.0000           -0.3318673              -9.0306
         7        2.0000           -0.3291950              -8.9579
         8        2.0000           -0.2756367              -7.5005
         9        2.0000           -0.1917182              -5.2169
        10        2.0000           -0.1778119              -4.8385
        11        2.0000           -0.1715327              -4.6676
        12        2.0000           -0.1506179              -4.0985 (HOMO)
        13                         -0.0039265              -0.1068 (LUMO)
        14                          0.2738457               7.4517
        15                          0.3626392               9.8679
        16                          0.3817920              10.3891
        17                          0.6408357              17.4380
        18                          0.6409679              17.4416
      -------------------------------------------------------------
                  HL-Gap            0.1466913 Eh            3.9917 eV

     #   Z          covCN         q      C6AA      α(0)
     1   7 N        2.755     0.440    14.727     5.700
     2   6 C        2.783    -0.172    32.454     9.331
     3   1 H        0.926    -0.017     3.376     2.873
     4   8 O        0.933    -0.617    26.482     6.902
     5   1 H        0.926    -0.017     3.376     2.873
     6   8 O        0.933    -0.617    26.482     6.902

Wiberg/Mayer (AO) data.
largest (>0.10) Wiberg bond orders for each atom

     #   Z sym  total        # sym  WBO       # sym  WBO       # sym  WBO
 ---------------------------------------------------------------------------
     1   7 N    3.884 --     2 C    1.455     6 O    1.213     4 O    1.213
     2   6 C    3.855 --     1 N    1.455     3 H    0.980     5 H    0.980
                             6 O    0.221     4 O    0.221
     3   1 H    1.000 --     2 C    0.980
     4   8 O    1.608 --     1 N    1.213     2 C    0.221     6 O    0.156
     5   1 H    1.000 --     2 C    0.980
     6   8 O    1.608 --     1 N    1.213     2 C    0.221     4 O    0.156
 ---------------------------------------------------------------------------

molecular dipole:
                 x           y           z       tot (Debye)
 q only:       13.204       5.767      -6.771
   full:       13.401       5.816      -6.915      41.081

 projected vibrational frequencies (cm⁻¹)
eigval :       -0.00    -0.00    -0.00     0.00     0.00     0.00
eigval :      473.91   505.43   618.51   631.01   702.46  1048.78
eigval :     1060.08  1358.95  1411.09  1605.92  3097.62  3136.27

   temp. (K)  partition function   enthalpy   heat capacity  entropy
                                   cal/mol     cal/K/mol   cal/K/mol   J/K/mol
 298.15  VIB   1.42                  595.123      6.248      2.689
         ROT  0.139E+05              888.752      2.981     21.932
         INT  0.196E+05             1483.875      9.229     24.621
         TR   0.450E+27             1481.254      4.968     38.180
         TOT                        2965.1289    14.1971    62.8005   262.7574

       T/K    H(0)-H(T)+PV         H(T)/Eh          T*S/Eh         G(T)/Eh
   ------------------------------------------------------------------------
    298.15    0.472523E-02    0.403786E-01    0.298386E-01    0.105401E-01
   ------------------------------------------------------------------------

         :::::::::::::::::::::::::::::::::::::::::::::::::::::
         ::                  THERMODYNAMIC                  ::
         :::::::::::::::::::::::::::::::::::::::::::::::::::::
         :: total free energy         -14.315089320955 Eh   ::
         ::.................................................::
         :: total energy              -14.325629393355 Eh   ::
         :: zero point energy           0.035653392984 Eh   ::
         :: G(RRHO) w/o ZPVE           -0.025113320584 Eh   ::
         :: G(RRHO) contrib.            0.010540072400 Eh   ::
         :::::::::::::::::::::::::::::::::::::::::::::::::::::

           -------------------------------------------------
          | TOTAL ENERGY              -14.325629393355 Eh   |
          | TOTAL ENTHALPY            -14.285250766763 Eh   |
          | TOTAL FREE ENERGY         -14.315089320955 Eh   |
          | GRADIENT NORM               0.000827879461 Eh/α |
          | HOMO-LUMO GAP               3.991674601128 eV   |
           -------------------------------------------------

 * finished run on 2025/10/18 at 05:21:56.168
