   * xtb version 6.7.1 (edcfbbe) compiled by 'albert@albert-system' on 2024-07-22

   ID    Z sym.   atoms
    1    6 C      1-3, 6
    2    8 O      4, 5
    3    1 H      7-15

          program call               : xtb xyz.xyz --charge -1 --ohess
          :  Hamiltonian                  GFN2-xTB          :
 * total energy  :   -21.4166098 Eh     change       -0.1406519E-10 Eh
 * total energy  :   -21.4226507 Eh     change       -0.6040871E-02 Eh
 * total energy  :   -21.4236048 Eh     change       -0.9541137E-03 Eh
 * total energy  :   -21.4238432 Eh     change       -0.2383525E-03 Eh
 * total energy  :   -21.4239546 Eh     change       -0.1114146E-03 Eh
 * total energy  :   -21.4239902 Eh     change       -0.3558349E-04 Eh
 * total energy  :   -21.4240267 Eh     change       -0.3648702E-04 Eh
 * total energy  :   -21.4240547 Eh     change       -0.2800028E-04 Eh
 * total energy  :   -21.4240820 Eh     change       -0.2730379E-04 Eh
 * total energy  :   -21.4241127 Eh     change       -0.3074089E-04 Eh
 * total energy  :   -21.4241294 Eh     change       -0.1674084E-04 Eh
 * total energy  :   -21.4241405 Eh     change       -0.1105495E-04 Eh
 * total energy  :   -21.4241488 Eh     change       -0.8296854E-05 Eh
 * total energy  :   -21.4241556 Eh     change       -0.6814027E-05 Eh
 * total energy  :   -21.4241614 Eh     change       -0.5759953E-05 Eh
 * total energy  :   -21.4241651 Eh     change       -0.3732318E-05 Eh
   *** GEOMETRY OPTIMIZATION CONVERGED AFTER 16 ITERATIONS ***

 final structure:
================
15
 xtb: 6.7.1 (edcfbbe)
C           -4.49209582163384       -3.72847130092569       -3.19003048391708
C           -3.48541017429692       -2.69659048785833       -2.70894456027071
C           -4.03605220299307       -1.74028203931065       -1.56570148337942
O           -3.16630023250366       -0.91720685014771       -1.07380408559567
O           -5.31543647801826       -3.19250424419687       -4.21235542689046
C           -6.36236821504036       -4.04060767806740       -4.56071396596792
H           -5.99234631877220       -5.00797280074262       -4.94061651412275
H           -7.02349145405535       -4.24433417633209       -3.70451853171860
H           -6.93481337299759       -3.54436038210665       -5.34504067871955
H           -3.98897389244803       -4.63415685072157       -3.58890843348421
H           -5.12294142294710       -4.05038832464403       -2.34283518375846
H           -2.60726913887800       -3.20974041155612       -2.30867661957122
H           -3.16686441308526       -2.08149437313182       -3.55120444676706
H           -4.96351298684289       -1.24862338154316       -2.03177457000940
H           -4.49046887548744       -2.48068769871520       -0.79261201582749

          :  Hamiltonian                  GFN2-xTB          :
         :: gradient norm              0.000317593106 Eh/a0 ::
         :: HOMO-LUMO gap              7.066007838038 eV    ::
         :: SCC energy               -21.612005481151 Eh    ::
         :: -> dispersion             -0.008934223931 Eh    ::
         :: repulsion energy           0.187840385161 Eh    ::

    * Orbital Energies and Occupations

         #    Occupation            Energy/Eh            Energy/eV
      -------------------------------------------------------------
         1        2.0000           -0.5730062             -15.5923
       ...           ...                  ...                  ...
         7        2.0000           -0.3986792             -10.8486
         8        2.0000           -0.3851687             -10.4810
         9        2.0000           -0.3683887             -10.0244
        10        2.0000           -0.3438158              -9.3557
        11        2.0000           -0.3369735              -9.1695
        12        2.0000           -0.3069492              -8.3525
        13        2.0000           -0.3009499              -8.1893
        14        2.0000           -0.2796472              -7.6096
        15        2.0000           -0.2587758              -7.0416
        16        2.0000           -0.2515861              -6.8460
        17        2.0000           -0.2218714              -6.0374
        18        2.0000           -0.0991135              -2.6970
        19        2.0000           -0.0944417              -2.5699 (HOMO)
        20                          0.1652292               4.4961 (LUMO)
        21                          0.2226720               6.0592
        22                          0.2450389               6.6678
        23                          0.2453863               6.6773
        24                          0.2789418               7.5904
        25                          0.2887161               7.8564
        26                          0.2983253               8.1178
        27                          0.3127680               8.5108
        28                          0.3268002               8.8927
        29                          0.3411384               9.2828
        30                          0.3680215              10.0144
       ...                                ...                  ...
        33                          0.6165190              16.7763
      -------------------------------------------------------------
                  HL-Gap            0.2596709 Eh            7.0660 eV

     #   Z          covCN         q      C6AA      α(0)
     1   6 C        3.705     0.101    19.059     6.241
     2   6 C        3.791    -0.079    22.018     6.682
     3   6 C        3.641     0.197    17.790     6.065
     4   8 O        0.855    -0.756    30.287     7.378
     5   8 O        1.701    -0.317    19.298     5.931
     6   6 C        3.657     0.061    19.831     6.392
     7   1 H        0.923     0.004     2.996     2.707
     8   1 H        0.923     0.013     2.845     2.638
     9   1 H        0.924     0.035     2.515     2.480
    10   1 H        0.922    -0.025     3.525     2.936
    11   1 H        0.923    -0.001     3.077     2.743
    12   1 H        0.924     0.005     2.976     2.698
    13   1 H        0.924     0.018     2.756     2.596
    14   1 H        0.912    -0.117     6.212     3.898
    15   1 H        0.907    -0.139     7.156     4.185

Wiberg/Mayer (AO) data.
largest (>0.10) Wiberg bond orders for each atom

     #   Z sym  total        # sym  WBO       # sym  WBO       # sym  WBO
 ---------------------------------------------------------------------------
     1   6 C    3.934 --     2 C    0.999    10 H    0.966    11 H    0.965
                             5 O    0.963
     2   6 C    3.957 --     1 C    0.999    12 H    0.979    13 H    0.979
                             3 C    0.903
     3   6 C    3.974 --     4 O    1.238    14 H    0.916    15 H    0.903
                             2 C    0.903
     4   8 O    1.452 --     3 C    1.238
     5   8 O    2.073 --     6 C    1.019     1 C    0.963
     6   6 C    3.970 --     5 O    1.019     9 H    0.981     8 H    0.974
                             7 H    0.974
     7   1 H    1.000 --     6 C    0.974
     8   1 H    1.000 --     6 C    0.974
     9   1 H    0.998 --     6 C    0.981
    10   1 H    0.999 --     1 C    0.966
    11   1 H    1.000 --     1 C    0.965
    12   1 H    1.000 --     2 C    0.979
    13   1 H    1.000 --     2 C    0.979
    14   1 H    0.986 --     3 C    0.916
    15   1 H    0.981 --     3 C    0.903
 ---------------------------------------------------------------------------

molecular dipole:
                 x           y           z       tot (Debye)
 q only:        6.803       2.478       2.952
   full:        6.455       1.916       2.753      18.489

 projected vibrational frequencies (cm⁻¹)
eigval :       -0.00    -0.00     0.00     0.00     0.00     0.00
eigval :       58.23    77.13    96.09   227.71   268.68   283.85
eigval :      364.53   535.46   742.44   807.55   919.93   996.57
eigval :     1065.05  1092.52  1113.27  1141.86  1164.16  1203.58
eigval :     1229.71  1238.82  1276.33  1297.42  1351.86  1381.84
eigval :     1408.43  1469.89  1476.95  1494.69  1506.20  1510.16
eigval :     2032.48  2306.28  2721.02  2816.29  2820.86  2867.27
eigval :     2952.57  2989.69  2995.18

   temp. (K)  partition function   enthalpy   heat capacity  entropy
                                   cal/mol     cal/K/mol   cal/K/mol   J/K/mol
 298.15  VIB   143.                 3013.794     18.488     19.407
         ROT  0.184E+06              888.752      2.981     27.066
         INT  0.263E+08             3902.546     21.469     46.474
         TR   0.814E+27             1481.254      4.968     39.357
         TOT                        5383.7998    26.4369    85.8303   359.1142

       T/K    H(0)-H(T)+PV         H(T)/Eh          T*S/Eh         G(T)/Eh
   ------------------------------------------------------------------------
    298.15    0.857963E-02    0.130012E+00    0.407808E-01    0.892310E-01
   ------------------------------------------------------------------------

         :::::::::::::::::::::::::::::::::::::::::::::::::::::
         ::                  THERMODYNAMIC                  ::
         :::::::::::::::::::::::::::::::::::::::::::::::::::::
         :: total free energy         -21.334934141736 Eh   ::
         ::.................................................::
         :: total energy              -21.424165095992 Eh   ::
         :: zero point energy           0.121432089629 Eh   ::
         :: G(RRHO) w/o ZPVE           -0.032201135374 Eh   ::
         :: G(RRHO) contrib.            0.089230954255 Eh   ::
         :::::::::::::::::::::::::::::::::::::::::::::::::::::

           -------------------------------------------------
          | TOTAL ENERGY              -21.424165095992 Eh   |
          | TOTAL ENTHALPY            -21.294153375286 Eh   |
          | TOTAL FREE ENERGY         -21.334934141736 Eh   |
          | GRADIENT NORM               0.000317618041 Eh/α |
          | HOMO-LUMO GAP               7.066005807997 eV   |
           -------------------------------------------------

 * finished run on 2025/10/18 at 01:19:10.907
