   * xtb version 6.7.1 (edcfbbe) compiled by 'albert@albert-system' on 2024-07-22

   ID    Z sym.   atoms
    1    6 C      1-3, 5, 7, 9, 11
    2    1 H      4, 6, 8, 12-15, 17, 18
    3    8 O      10, 16

          program call               : xtb tb_lite_results_shiftn0p15_gp513_b0_rot180_complex.xyz --ohess --chrg -1 --alpb water
      * Solvation model:               ALPB
        Solvent                        water
        Solvent mass                       1.8000E+01 g/mol
          :  Hamiltonian                  GFN2-xTB          :
 * total energy  :   -27.9944106 Eh     change       -0.5244409E-09 Eh
 * total energy  :   -27.9982143 Eh     change       -0.3803708E-02 Eh
 * total energy  :   -27.9985266 Eh     change       -0.3123158E-03 Eh
 * total energy  :   -27.9985813 Eh     change       -0.5470774E-04 Eh
 * total energy  :   -27.9986505 Eh     change       -0.6914013E-04 Eh
 * total energy  :   -27.9986805 Eh     change       -0.3003833E-04 Eh
 * total energy  :   -27.9987171 Eh     change       -0.3658003E-04 Eh
 * total energy  :   -27.9987630 Eh     change       -0.4594954E-04 Eh
 * total energy  :   -27.9986409 Eh     change        0.1220894E-03 Eh
 * total energy  :   -27.9988238 Eh     change       -0.1828431E-03 Eh
 * total energy  :   -28.0008351 Eh     change       -0.3710497E-04 Eh
 * total energy  :   -28.0008671 Eh     change       -0.3194999E-04 Eh
 * total energy  :   -28.0008996 Eh     change       -0.3251760E-04 Eh
 * total energy  :   -28.0009020 Eh     change       -0.2351624E-05 Eh
 * total energy  :   -28.0009365 Eh     change       -0.3458293E-04 Eh
 * total energy  :   -28.0009511 Eh     change       -0.1458484E-04 Eh
 * total energy  :   -28.0009581 Eh     change       -0.7015620E-05 Eh
 * total energy  :   -28.0009635 Eh     change       -0.5348432E-05 Eh
 * total energy  :   -28.0009677 Eh     change       -0.4247992E-05 Eh
   *** GEOMETRY OPTIMIZATION CONVERGED AFTER 53 ITERATIONS ***

 final structure:
================
18
 xtb: 6.7.1 (edcfbbe)
C           -5.42636028803857       -6.43687226624623        2.80704057256124
C           -5.10171758828566       -5.28233446790080        3.49885567530924
C           -2.92568093924129       -6.32081066544300       -0.04393887114322
H           -4.95121620273162       -7.65142062505172        1.10981464159736
C           -4.08373988347323       -4.46472194392137        3.06060408586738
H           -5.64950676261293       -5.01331924015147        4.39405638127346
C           -3.33357888821307       -4.76109372344311        1.90033747244901
H           -3.83245234286948       -3.55996795267426        3.60212562637078
C           -3.68435242040981       -5.95141950135419        1.20098835954317
O           -2.37042603138304       -3.99221469722695        1.48976325119365
C           -4.70811901553604       -6.75172035537168        1.66350574652871
H           -6.22410714416733       -7.08037783853537        3.14965740663729
H           -2.17731136748898       -5.55198490351782       -0.23150137357647
H           -2.42419573250481       -7.28156268373304        0.07466012532336
H           -3.59302656134243       -6.38257303825021       -0.90379581120262
O           -1.71009368072608       -1.90835126371328        2.93002227154624
H           -2.00823728718230       -2.68165503592207        2.36176135796337
H           -0.77252118517878       -2.06724164517658        3.07898039399814

          :  Hamiltonian                  GFN2-xTB          :
         :: gradient norm              0.000441098086 Eh/a0 ::
         :: HOMO-LUMO gap              3.540961651183 eV    ::
         :: SCC energy               -28.381794463968 Eh    ::
         :: -> dispersion             -0.014122693573 Eh    ::
         :: -> Gsolv                  -0.100035137122 Eh    ::
         :: repulsion energy           0.380826733246 Eh    ::

    * Orbital Energies and Occupations

         #    Occupation            Energy/Eh            Energy/eV
      -------------------------------------------------------------
         1        2.0000           -0.6456377             -17.5687
       ...           ...                  ...                  ...
        13        2.0000           -0.4748475             -12.9213
        14        2.0000           -0.4684759             -12.7479
        15        2.0000           -0.4468578             -12.1596
        16        2.0000           -0.4463548             -12.1459
        17        2.0000           -0.4448730             -12.1056
        18        2.0000           -0.4381769             -11.9234
        19        2.0000           -0.4120449             -11.2123
        20        2.0000           -0.4101651             -11.1612
        21        2.0000           -0.4057709             -11.0416
        22        2.0000           -0.3988848             -10.8542
        23        2.0000           -0.3660387              -9.9604
        24        2.0000           -0.3353706              -9.1259
        25        2.0000           -0.3172906              -8.6339 (HOMO)
        26                         -0.1871626              -5.0930 (LUMO)
        27                         -0.1685346              -4.5861
        28                         -0.0529930              -1.4420
        29                          0.1184183               3.2223
        30                          0.1326396               3.6093
        31                          0.1454782               3.9587
        32                          0.1812226               4.9313
        33                          0.1859398               5.0597
        34                          0.1941099               5.2820
        35                          0.2201912               5.9917
        36                          0.2382941               6.4843
       ...                                ...                  ...
        45                          0.7005201              19.0621
      -------------------------------------------------------------
                  HL-Gap            0.1301280 Eh            3.5410 eV

     #   Z          covCN         q      C6AA      α(0)
     1   6 C        2.916    -0.076    29.903     8.967
     2   6 C        2.916    -0.052    29.286     8.874
     3   6 C        3.756    -0.092    22.315     6.735
     4   1 H        0.925     0.004     2.986     2.702
     5   6 C        2.917    -0.098    30.477     9.053
     6   1 H        0.925    -0.002     3.096     2.752
     7   6 C        2.838     0.155    24.628     8.133
     8   1 H        0.925    -0.011     3.250     2.819
     9   6 C        2.964    -0.057    29.426     8.898
    10   8 O        0.858    -0.715    29.122     7.235
    11   6 C        2.921    -0.058    29.440     8.898
    12   1 H        0.926     0.003     3.014     2.715
    13   1 H        0.925     0.028     2.610     2.526
    14   1 H        0.924     0.026     2.640     2.541
    15   1 H        0.925     0.026     2.650     2.546
    16   8 O        1.603    -0.718    28.188     7.165
    17   1 H        0.799     0.302     0.716     1.329
    18   1 H        0.805     0.335     0.624     1.241

Wiberg/Mayer (AO) data.
largest (>0.10) Wiberg bond orders for each atom

     #   Z sym  total        # sym  WBO       # sym  WBO       # sym  WBO
 ---------------------------------------------------------------------------
     1   6 C    3.981 --     2 C    1.414    11 C    1.405    12 H    0.972
     2   6 C    3.990 --     5 C    1.476     1 C    1.414     6 H    0.971
     3   6 C    3.998 --     9 C    1.019    13 H    0.985    15 H    0.978
                            14 H    0.978
     4   1 H    1.000 --    11 C    0.970
     5   6 C    3.981 --     2 C    1.476     7 C    1.284     8 H    0.970
     6   1 H    1.000 --     2 C    0.971
     7   6 C    3.964 --    10 O    1.303     5 C    1.284     9 C    1.247
     8   1 H    1.000 --     5 C    0.970
     9   6 C    3.981 --    11 C    1.470     7 C    1.247     3 C    1.019
    10   8 O    1.727 --     7 C    1.303    17 H    0.101
    11   6 C    3.989 --     9 C    1.470     1 C    1.405     4 H    0.970
    12   1 H    1.000 --     1 C    0.972
    13   1 H    0.999 --     3 C    0.985
    14   1 H    0.999 --     3 C    0.978
    15   1 H    0.999 --     3 C    0.978
    16   8 O    1.742 --    18 H    0.887    17 H    0.802
    17   1 H    0.909 --    16 O    0.802    10 O    0.101
    18   1 H    0.888 --    16 O    0.887
 ---------------------------------------------------------------------------

molecular dipole:
                 x           y           z       tot (Debye)
 q only:        5.995       7.537      -3.870
   full:        6.017       7.344      -3.892      26.082

 projected vibrational frequencies (cm⁻¹)
eigval :       -0.00    -0.00    -0.00    -0.00     0.00     0.00
eigval :       30.49    46.99    67.18   129.27   151.67   200.04
eigval :      255.54   328.57   408.37   439.09   511.43   526.93
eigval :      545.69   572.40   668.92   762.89   780.34   840.32
eigval :      844.33   871.64   886.91   907.29   993.71  1037.43
eigval :     1094.65  1125.93  1176.18  1209.84  1256.45  1320.19
eigval :     1329.88  1388.60  1451.72  1482.89  1493.32  1495.92
eigval :     1535.35  1550.96  1604.24  2681.98  2971.30  2986.47
eigval :     3011.32  3015.85  3016.23  3033.08  3056.85  3610.95

   temp. (K)  partition function   enthalpy   heat capacity  entropy
                                   cal/mol     cal/K/mol   cal/K/mol   J/K/mol
 298.15  VIB  0.343E+04             4678.634     28.518     29.331
         ROT  0.603E+06              888.752      2.981     29.430
         INT  0.207E+10             5567.387     31.498     58.761
         TR   0.135E+28             1481.254      4.968     40.368
         TOT                        7048.6408    36.4666    99.1297   414.7586

       T/K    H(0)-H(T)+PV         H(T)/Eh          T*S/Eh         G(T)/Eh
   ------------------------------------------------------------------------
    298.15    0.112327E-01    0.149535E+00    0.470997E-01    0.102435E+00
   ------------------------------------------------------------------------

         :::::::::::::::::::::::::::::::::::::::::::::::::::::
         ::                  THERMODYNAMIC                  ::
         :::::::::::::::::::::::::::::::::::::::::::::::::::::
         :: total free energy         -27.898532723456 Eh   ::
         ::.................................................::
         :: total energy              -28.000967730315 Eh   ::
         :: zero point energy           0.138302000340 Eh   ::
         :: G(RRHO) w/o ZPVE           -0.035866993481 Eh   ::
         :: G(RRHO) contrib.            0.102435006859 Eh   ::
         :::::::::::::::::::::::::::::::::::::::::::::::::::::

           -------------------------------------------------
          | TOTAL ENERGY              -28.000967730315 Eh   |
          | TOTAL ENTHALPY            -27.851433005927 Eh   |
          | TOTAL FREE ENERGY         -27.898532723456 Eh   |
          | GRADIENT NORM               0.000441173872 Eh/α |
          | HOMO-LUMO GAP               3.540962142633 eV   |
           -------------------------------------------------

 * finished run on 2025/10/18 at 02:21:24.064
normal termination of xtb
