   * xtb version 6.7.1 (edcfbbe) compiled by 'albert@albert-system' on 2024-07-22

   ID    Z sym.   atoms
    1    6 C      1-3, 5, 7, 9, 11
    2    1 H      4, 6, 8, 12-15, 17, 18
    3    8 O      10, 16

          program call               : xtb tb_lite_results_shiftn0p15_gp526_b0_rot180_complex.xyz --ohess --chrg -1 --alpb water
      * Solvation model:               ALPB
        Solvent                        water
        Solvent mass                       1.8000E+01 g/mol
          :  Hamiltonian                  GFN2-xTB          :
 * total energy  :   -27.9948418 Eh     change       -0.5965894E-09 Eh
 * total energy  :   -27.9988407 Eh     change       -0.3998921E-02 Eh
 * total energy  :   -27.9992453 Eh     change       -0.4046467E-03 Eh
 * total energy  :   -27.9993603 Eh     change       -0.1149788E-03 Eh
 * total energy  :   -27.9994655 Eh     change       -0.1051621E-03 Eh
 * total energy  :   -27.9995317 Eh     change       -0.6618568E-04 Eh
 * total energy  :   -27.9996027 Eh     change       -0.7102327E-04 Eh
 * total energy  :   -27.9996519 Eh     change       -0.4925636E-04 Eh
 * total energy  :   -27.9997002 Eh     change       -0.4828747E-04 Eh
 * total energy  :   -27.9998174 Eh     change       -0.1171334E-03 Eh
 * total energy  :   -28.0009802 Eh     change       -0.3131089E-05 Eh
 * total energy  :   -28.0009858 Eh     change       -0.5539720E-05 Eh
 * total energy  :   -28.0009683 Eh     change        0.1741795E-04 Eh
 * total energy  :   -28.0010035 Eh     change       -0.3518819E-04 Eh
 * total energy  :   -28.0010105 Eh     change       -0.6942404E-05 Eh
 * total energy  :   -28.0009945 Eh     change        0.1595627E-04 Eh
 * total energy  :   -28.0010376 Eh     change       -0.4305290E-04 Eh
 * total energy  :   -28.0010425 Eh     change       -0.4984277E-05 Eh
 * total energy  :   -28.0010464 Eh     change       -0.3861107E-05 Eh
   *** GEOMETRY OPTIMIZATION CONVERGED AFTER 44 ITERATIONS ***

 final structure:
================
18
 xtb: 6.7.1 (edcfbbe)
C           -5.07559125334186       -6.64452779428657        3.06530497365311
C           -5.10791968734970       -5.34364891801970        3.53847158037078
C           -2.96364897423211       -6.24595537126715       -0.06109815375442
H           -4.33829881007183       -7.92512400892488        1.51707633878933
C           -4.45777611228308       -4.33532183589188        2.86234953175172
H           -5.64729387152611       -5.10921447075651        4.44834504630026
C           -3.73774774382324       -4.57724286665254        1.67086372548282
H           -4.48114120464033       -3.31795212517454        3.23533138413520
C           -3.71445111410837       -5.92136914722605        1.20109079082070
O           -3.12802620696076       -3.62379798016911        1.03224004733527
C           -4.37459028089182       -6.91129471872357        1.89922487676150
H           -5.58496342451549       -7.43751303186714        3.59403727278151
H           -2.48083472868368       -5.33737382739365       -0.41833558158649
H           -2.20311288194256       -7.00519561536429        0.12120832221942
H           -3.64020651558383       -6.61239759918934       -0.83381554807525
O           -3.28660342346248       -1.19816756741245        1.99830998747331
H           -3.20178366982071       -2.14385798308425        1.66505293929135
H           -3.38494323076804       -0.66883499437238        1.20054623725620

          :  Hamiltonian                  GFN2-xTB          :
         :: gradient norm              0.000419169868 Eh/a0 ::
         :: HOMO-LUMO gap              3.544166251397 eV    ::
         :: SCC energy               -28.381741342253 Eh    ::
         :: -> dispersion             -0.014130274059 Eh    ::
         :: -> Gsolv                  -0.100296387631 Eh    ::
         :: repulsion energy           0.380694932912 Eh    ::

    * Orbital Energies and Occupations

         #    Occupation            Energy/Eh            Energy/eV
      -------------------------------------------------------------
         1        2.0000           -0.6453331             -17.5604
       ...           ...                  ...                  ...
        13        2.0000           -0.4748114             -12.9203
        14        2.0000           -0.4684187             -12.7463
        15        2.0000           -0.4466453             -12.1538
        16        2.0000           -0.4462284             -12.1425
        17        2.0000           -0.4448966             -12.1063
        18        2.0000           -0.4381744             -11.9233
        19        2.0000           -0.4120396             -11.2122
        20        2.0000           -0.4097639             -11.1502
        21        2.0000           -0.4056879             -11.0393
        22        2.0000           -0.3987986             -10.8519
        23        2.0000           -0.3659102              -9.9569
        24        2.0000           -0.3354454              -9.1279
        25        2.0000           -0.3172960              -8.6341 (HOMO)
        26                         -0.1870503              -5.0899 (LUMO)
        27                         -0.1684874              -4.5848
        28                         -0.0528761              -1.4388
        29                          0.1175693               3.1992
        30                          0.1329568               3.6179
        31                          0.1453622               3.9555
        32                          0.1814812               4.9384
        33                          0.1864122               5.0725
        34                          0.1948388               5.3018
        35                          0.2203785               5.9968
        36                          0.2381602               6.4807
       ...                                ...                  ...
        45                          0.7004011              19.0589
      -------------------------------------------------------------
                  HL-Gap            0.1302457 Eh            3.5442 eV

     #   Z          covCN         q      C6AA      α(0)
     1   6 C        2.916    -0.076    29.901     8.967
     2   6 C        2.916    -0.052    29.285     8.874
     3   6 C        3.756    -0.092    22.316     6.735
     4   1 H        0.925     0.004     2.983     2.701
     5   6 C        2.917    -0.098    30.471     9.052
     6   1 H        0.925    -0.002     3.097     2.752
     7   6 C        2.838     0.155    24.632     8.133
     8   1 H        0.925    -0.010     3.236     2.813
     9   6 C        2.964    -0.057    29.424     8.897
    10   8 O        0.858    -0.715    29.113     7.234
    11   6 C        2.921    -0.058    29.441     8.898
    12   1 H        0.926     0.003     3.011     2.714
    13   1 H        0.925     0.028     2.611     2.527
    14   1 H        0.925     0.026     2.644     2.543
    15   1 H        0.924     0.026     2.640     2.541
    16   8 O        1.603    -0.719    28.231     7.171
    17   1 H        0.799     0.302     0.717     1.330
    18   1 H        0.805     0.335     0.624     1.241

Wiberg/Mayer (AO) data.
largest (>0.10) Wiberg bond orders for each atom

     #   Z sym  total        # sym  WBO       # sym  WBO       # sym  WBO
 ---------------------------------------------------------------------------
     1   6 C    3.981 --     2 C    1.414    11 C    1.406    12 H    0.972
     2   6 C    3.990 --     5 C    1.477     1 C    1.414     6 H    0.971
     3   6 C    3.998 --     9 C    1.019    13 H    0.985    14 H    0.979
                            15 H    0.978
     4   1 H    1.000 --    11 C    0.970
     5   6 C    3.981 --     2 C    1.477     7 C    1.284     8 H    0.969
     6   1 H    1.000 --     2 C    0.971
     7   6 C    3.964 --    10 O    1.302     5 C    1.284     9 C    1.249
     8   1 H    1.000 --     5 C    0.969
     9   6 C    3.981 --    11 C    1.469     7 C    1.249     3 C    1.019
    10   8 O    1.728 --     7 C    1.302    17 H    0.104
    11   6 C    3.989 --     9 C    1.469     1 C    1.406     4 H    0.970
    12   1 H    1.000 --     1 C    0.972
    13   1 H    0.999 --     3 C    0.985
    14   1 H    0.999 --     3 C    0.979
    15   1 H    0.999 --     3 C    0.978
    16   8 O    1.740 --    18 H    0.887    17 H    0.800
    17   1 H    0.909 --    16 O    0.800    10 O    0.104
    18   1 H    0.888 --    16 O    0.887
 ---------------------------------------------------------------------------

molecular dipole:
                 x           y           z       tot (Debye)
 q only:        6.703       7.328      -3.662
   full:        6.650       7.207      -3.778      26.710

 projected vibrational frequencies (cm⁻¹)
eigval :       -0.00    -0.00     0.00     0.00     0.00     0.00
eigval :       41.72    45.07    73.64   146.28   153.55   202.24
eigval :      255.49   329.20   409.02   438.88   512.12   530.10
eigval :      549.49   578.01   669.33   762.16   780.91   841.19
eigval :      844.77   882.44   886.74   907.66   993.58  1037.80
eigval :     1095.57  1126.08  1176.41  1210.57  1257.33  1320.63
eigval :     1329.40  1388.66  1451.50  1482.62  1493.54  1496.33
eigval :     1538.42  1551.30  1604.07  2657.97  2970.62  2986.85
eigval :     3011.70  3016.06  3016.60  3034.91  3057.07  3614.59

   temp. (K)  partition function   enthalpy   heat capacity  entropy
                                   cal/mol     cal/K/mol   cal/K/mol   J/K/mol
 298.15  VIB  0.222E+04             4626.674     28.669     28.861
         ROT  0.601E+06              888.752      2.981     29.424
         INT  0.133E+10             5515.426     31.650     58.285
         TR   0.135E+28             1481.254      4.968     40.368
         TOT                        6996.6798    36.6181    98.6537   412.7670

       T/K    H(0)-H(T)+PV         H(T)/Eh          T*S/Eh         G(T)/Eh
   ------------------------------------------------------------------------
    298.15    0.111499E-01    0.149572E+00    0.468735E-01    0.102698E+00
   ------------------------------------------------------------------------

         :::::::::::::::::::::::::::::::::::::::::::::::::::::
         ::                  THERMODYNAMIC                  ::
         :::::::::::::::::::::::::::::::::::::::::::::::::::::
         :: total free energy         -27.898348172019 Eh   ::
         ::.................................................::
         :: total energy              -28.001046409942 Eh   ::
         :: zero point energy           0.138421868137 Eh   ::
         :: G(RRHO) w/o ZPVE           -0.035723630214 Eh   ::
         :: G(RRHO) contrib.            0.102698237923 Eh   ::
         :::::::::::::::::::::::::::::::::::::::::::::::::::::

           -------------------------------------------------
          | TOTAL ENERGY              -28.001046409942 Eh   |
          | TOTAL ENTHALPY            -27.851474622846 Eh   |
          | TOTAL FREE ENERGY         -27.898348172019 Eh   |
          | GRADIENT NORM               0.000419252377 Eh/α |
          | HOMO-LUMO GAP               3.544167064966 eV   |
           -------------------------------------------------

 * finished run on 2025/10/18 at 02:21:14.993
normal termination of xtb
