   * xtb version 6.7.1 (edcfbbe) compiled by 'albert@albert-system' on 2024-07-22

   ID    Z sym.   atoms
    1    6 C      1-3, 5, 7, 9, 11
    2    1 H      4, 6, 8, 12-15
    3    8 O      10

          program call               : xtb tb_lite_results_shiftn0p15_gp513_b0_rot180_solute.xyz --ohess --chrg -1
          :  Hamiltonian                  GFN2-xTB          :
 * total energy  :   -22.8115224 Eh     change       -0.8508749E-10 Eh
 * total energy  :   -22.8144434 Eh     change       -0.2920958E-02 Eh
 * total energy  :   -22.8146050 Eh     change       -0.1616130E-03 Eh
 * total energy  :   -22.8146160 Eh     change       -0.1100166E-04 Eh
 * total energy  :   -22.8146174 Eh     change       -0.1436020E-05 Eh
   *** GEOMETRY OPTIMIZATION CONVERGED AFTER 5 ITERATIONS ***

 final structure:
================
15
 xtb: 6.7.1 (edcfbbe)
C           -5.26147663494344       -6.50206356483019        2.93743939085417
C           -5.08043014817058       -5.24546231624238        3.49864462475715
C           -2.94437861025451       -6.28484164800530       -0.06513468602218
H           -4.68756044833862       -7.79624595490405        1.32900563374483
C           -4.22733864363495       -4.33217953218333        2.92911427408243
H           -5.62434028189173       -4.98229149757750        4.40492915306739
C           -3.48081556345602       -4.60686613806140        1.74168047972552
H           -4.09915873127451       -3.35434834574257        3.38301561638131
C           -3.69514960029398       -5.91994713309241        1.18803024286205
O           -2.69723515002616       -3.76593856411192        1.21917855621094
C           -4.55573513756773       -6.81357886894655        1.78076611741731
H           -5.93540400743777       -7.22349272034371        3.38797730496116
H           -2.32097281677719       -5.43421539117751       -0.33758240965301
H           -2.30521963414024       -7.15966105997324        0.08665768168896
H           -3.62421489221821       -6.50510468948905       -0.89363184965500

          :  Hamiltonian                  GFN2-xTB          :
         :: gradient norm              0.000664937425 Eh/a0 ::
         :: HOMO-LUMO gap              3.227991269466 eV    ::
         :: SCC energy               -23.164786217752 Eh    ::
         :: -> dispersion             -0.012701112558 Eh    ::
         :: repulsion energy           0.350168807731 Eh    ::

    * Orbital Energies and Occupations

         #    Occupation            Energy/Eh            Energy/eV
      -------------------------------------------------------------
         1        2.0000           -0.4534276             -12.3384
       ...           ...                  ...                  ...
         9        2.0000           -0.3279636              -8.9243
        10        2.0000           -0.3246264              -8.8335
        11        2.0000           -0.3163569              -8.6085
        12        2.0000           -0.2927459              -7.9660
        13        2.0000           -0.2864980              -7.7960
        14        2.0000           -0.2859285              -7.7805
        15        2.0000           -0.2803755              -7.6294
        16        2.0000           -0.2490775              -6.7777
        17        2.0000           -0.2489121              -6.7732
        18        2.0000           -0.2408324              -6.5534
        19        2.0000           -0.2086658              -5.6781
        20        2.0000           -0.1550879              -4.2202
        21        2.0000           -0.1460647              -3.9746 (HOMO)
        22                         -0.0274384              -0.7466 (LUMO)
        23                         -0.0031111              -0.0847
        24                          0.1084379               2.9507
        25                          0.2753097               7.4916
        26                          0.2873375               7.8189
        27                          0.3225706               8.7776
        28                          0.3268843               8.8950
        29                          0.3404077               9.2630
        30                          0.3682911              10.0217
        31                          0.3717848              10.1168
        32                          0.3990967              10.8600
       ...                                ...                  ...
        39                          0.8727390              23.7484
      -------------------------------------------------------------
                  HL-Gap            0.1186264 Eh            3.2280 eV

     #   Z          covCN         q      C6AA      α(0)
     1   6 C        2.914    -0.088    30.209     9.013
     2   6 C        2.913    -0.052    29.298     8.876
     3   6 C        3.755    -0.080    22.084     6.701
     4   1 H        0.925    -0.037     3.780     3.040
     5   6 C        2.916    -0.102    30.564     9.066
     6   1 H        0.925    -0.040     3.864     3.074
     7   6 C        2.832     0.176    24.209     8.063
     8   1 H        0.925    -0.023     3.488     2.920
     9   6 C        2.964    -0.063    29.554     8.917
    10   8 O        0.857    -0.615    26.488     6.900
    11   6 C        2.917    -0.057    29.405     8.892
    12   1 H        0.925    -0.044     3.946     3.107
    13   1 H        0.925     0.041     2.431     2.438
    14   1 H        0.924    -0.009     3.220     2.806
    15   1 H        0.924    -0.009     3.214     2.803

Wiberg/Mayer (AO) data.
largest (>0.10) Wiberg bond orders for each atom

     #   Z sym  total        # sym  WBO       # sym  WBO       # sym  WBO
 ---------------------------------------------------------------------------
     1   6 C    3.967 --     2 C    1.393    11 C    1.384    12 H    0.971
     2   6 C    3.986 --     5 C    1.505     1 C    1.393     6 H    0.969
     3   6 C    3.994 --     9 C    1.015    13 H    0.982    14 H    0.980
                            15 H    0.980
     4   1 H    0.999 --    11 C    0.968
     5   6 C    3.975 --     2 C    1.505     7 C    1.217     8 H    0.972
                            10 O    0.106
     6   1 H    0.998 --     2 C    0.969
     7   6 C    3.972 --    10 O    1.461     5 C    1.217     9 C    1.184
     8   1 H    0.999 --     5 C    0.972
     9   6 C    3.972 --    11 C    1.498     7 C    1.184     3 C    1.015
                            10 O    0.103
    10   8 O    1.791 --     7 C    1.461     5 C    0.106     9 C    0.103
    11   6 C    3.985 --     9 C    1.498     1 C    1.384     4 H    0.968
    12   1 H    0.998 --     1 C    0.971
    13   1 H    0.998 --     3 C    0.982
    14   1 H    1.000 --     3 C    0.980
    15   1 H    1.000 --     3 C    0.980
 ---------------------------------------------------------------------------

molecular dipole:
                 x           y           z       tot (Debye)
 q only:        6.875       9.122      -3.424
   full:        6.685       8.868      -3.331      29.471

 projected vibrational frequencies (cm⁻¹)
eigval :       -0.00    -0.00    -0.00     0.00     0.00     0.00
eigval :       79.95   147.29   253.52   282.74   399.81   432.07
eigval :      504.11   523.81   561.40   670.73   744.61   768.59
eigval :      811.40   847.17   881.50   902.09   983.96  1036.25
eigval :     1083.79  1121.06  1176.27  1197.72  1241.79  1321.05
eigval :     1374.18  1387.20  1483.02  1497.83  1499.39  1528.74
eigval :     1560.02  1619.36  2921.32  2940.04  2946.54  2952.35
eigval :     2998.40  3010.56  3013.05

   temp. (K)  partition function   enthalpy   heat capacity  entropy
                                   cal/mol     cal/K/mol   cal/K/mol   J/K/mol
 298.15  VIB   24.3                 2716.891     20.851     15.345
         ROT  0.270E+06              888.752      2.981     27.832
         INT  0.656E+07             3605.644     23.832     43.177
         TR   0.107E+28             1481.254      4.968     39.905
         TOT                        5086.8977    28.8000    83.0822   347.6158

       T/K    H(0)-H(T)+PV         H(T)/Eh          T*S/Eh         G(T)/Eh
   ------------------------------------------------------------------------
    298.15    0.810649E-02    0.123620E+00    0.394750E-01    0.841452E-01
   ------------------------------------------------------------------------

         :::::::::::::::::::::::::::::::::::::::::::::::::::::
         ::                  THERMODYNAMIC                  ::
         :::::::::::::::::::::::::::::::::::::::::::::::::::::
         :: total free energy         -22.730472191488 Eh   ::
         ::.................................................::
         :: total energy              -22.814617410027 Eh   ::
         :: zero point energy           0.115513755375 Eh   ::
         :: G(RRHO) w/o ZPVE           -0.031368536836 Eh   ::
         :: G(RRHO) contrib.            0.084145218539 Eh   ::
         :::::::::::::::::::::::::::::::::::::::::::::::::::::

           -------------------------------------------------
          | TOTAL ENERGY              -22.814617410027 Eh   |
          | TOTAL ENTHALPY            -22.690997167202 Eh   |
          | TOTAL FREE ENERGY         -22.730472191488 Eh   |
          | GRADIENT NORM               0.000665030468 Eh/α |
          | HOMO-LUMO GAP               3.227988176721 eV   |
           -------------------------------------------------

 * finished run on 2025/10/18 at 02:21:24.641
normal termination of xtb
