   * xtb version 6.7.1 (edcfbbe) compiled by 'albert@albert-system' on 2024-07-22

   ID    Z sym.   atoms
    1    6 C      1-3, 5, 7, 9, 11
    2    1 H      4, 6, 8, 12-15, 17, 18
    3    8 O      10, 16

          program call               : xtb tb_lite_results_shiftn0p2_gp513_b0_rot180_complex.xyz --ohess --chrg -1 --alpb water
      * Solvation model:               ALPB
        Solvent                        water
        Solvent mass                       1.8000E+01 g/mol
          :  Hamiltonian                  GFN2-xTB          :
 * total energy  :   -27.9941030 Eh     change       -0.4857270E-09 Eh
 * total energy  :   -27.9982694 Eh     change       -0.4166370E-02 Eh
 * total energy  :   -27.9985771 Eh     change       -0.3076545E-03 Eh
 * total energy  :   -27.9986092 Eh     change       -0.3215876E-04 Eh
 * total energy  :   -27.9986510 Eh     change       -0.4179929E-04 Eh
 * total energy  :   -27.9986799 Eh     change       -0.2888196E-04 Eh
 * total energy  :   -27.9987195 Eh     change       -0.3955491E-04 Eh
 * total energy  :   -27.9987427 Eh     change       -0.2329325E-04 Eh
 * total energy  :   -27.9988084 Eh     change       -0.6568780E-04 Eh
 * total energy  :   -27.9988713 Eh     change       -0.6283676E-04 Eh
 * total energy  :   -28.0006545 Eh     change       -0.4971061E-04 Eh
 * total energy  :   -28.0007079 Eh     change       -0.5342047E-04 Eh
 * total energy  :   -28.0007956 Eh     change       -0.8772453E-04 Eh
 * total energy  :   -28.0008398 Eh     change       -0.4418249E-04 Eh
 * total energy  :   -28.0008673 Eh     change       -0.2745599E-04 Eh
 * total energy  :   -28.0008891 Eh     change       -0.2186325E-04 Eh
 * total energy  :   -28.0009003 Eh     change       -0.1116296E-04 Eh
 * total energy  :   -28.0009090 Eh     change       -0.8729802E-05 Eh
 * total energy  :   -28.0009140 Eh     change       -0.4933513E-05 Eh
   *** GEOMETRY OPTIMIZATION CONVERGED AFTER 42 ITERATIONS ***

 final structure:
================
18
 xtb: 6.7.1 (edcfbbe)
C           -5.40951072613813       -6.43519816100685        2.81782233744780
C           -5.08359711453710       -5.27189565691196        3.49408284141353
C           -2.93198920483990       -6.34248027165439       -0.05427337682984
H           -4.94398173258438       -7.66671905867249        1.13019763186371
C           -4.06924877805857       -4.45778061661740        3.04099051453810
H           -5.62703403090061       -4.99240716581641        4.38874666491484
C           -3.32467770499021       -4.76647465454910        1.88052020082980
H           -3.81889689358854       -3.54565240338133        3.57007866691144
C           -3.67921831484675       -5.96346857276673        1.19481023703810
O           -2.36266131745636       -4.00152346373173        1.45767229960793
C           -4.69840626413712       -6.76086154262911        1.67278704321048
H           -6.20366029156699       -7.07674519334360        3.17233581295179
H           -2.19044742811036       -5.57137644706600       -0.25915603706509
H           -2.42318102081237       -7.29885621449898        0.06895338498284
H           -3.60917344920159       -6.41793345591178       -0.90535639635951
O           -1.77519966168441       -1.89335577768792        2.89272108993424
H           -2.03631289107892       -2.67589179171732        2.31595319929473
H           -0.87604903723039       -2.08762394004849        3.17744865717677

          :  Hamiltonian                  GFN2-xTB          :
         :: gradient norm              0.000971371711 Eh/a0 ::
         :: HOMO-LUMO gap              3.542347872214 eV    ::
         :: SCC energy               -28.381341619354 Eh    ::
         :: -> dispersion             -0.014144068006 Eh    ::
         :: -> Gsolv                  -0.100042426762 Eh    ::
         :: repulsion energy           0.380427650239 Eh    ::

    * Orbital Energies and Occupations

         #    Occupation            Energy/Eh            Energy/eV
      -------------------------------------------------------------
         1        2.0000           -0.6453538             -17.5610
       ...           ...                  ...                  ...
        13        2.0000           -0.4748617             -12.9216
        14        2.0000           -0.4682686             -12.7422
        15        2.0000           -0.4469232             -12.1614
        16        2.0000           -0.4463498             -12.1458
        17        2.0000           -0.4449494             -12.1077
        18        2.0000           -0.4381704             -11.9232
        19        2.0000           -0.4119833             -11.2106
        20        2.0000           -0.4101291             -11.1602
        21        2.0000           -0.4055637             -11.0359
        22        2.0000           -0.3987739             -10.8512
        23        2.0000           -0.3660556              -9.9609
        24        2.0000           -0.3354925              -9.1292
        25        2.0000           -0.3174053              -8.6370 (HOMO)
        26                         -0.1872264              -5.0947 (LUMO)
        27                         -0.1686494              -4.5892
        28                         -0.0530840              -1.4445
        29                          0.1174822               3.1969
        30                          0.1323685               3.6019
        31                          0.1451751               3.9504
        32                          0.1812032               4.9308
        33                          0.1859983               5.0613
        34                          0.1941942               5.2843
        35                          0.2201063               5.9894
        36                          0.2381758               6.4811
       ...                                ...                  ...
        45                          0.7000269              19.0487
      -------------------------------------------------------------
                  HL-Gap            0.1301789 Eh            3.5423 eV

     #   Z          covCN         q      C6AA      α(0)
     1   6 C        2.916    -0.076    29.901     8.967
     2   6 C        2.916    -0.052    29.287     8.874
     3   6 C        3.756    -0.092    22.315     6.735
     4   1 H        0.925     0.004     2.986     2.702
     5   6 C        2.917    -0.099    30.482     9.054
     6   1 H        0.925    -0.002     3.094     2.751
     7   6 C        2.838     0.155    24.630     8.133
     8   1 H        0.925    -0.009     3.223     2.808
     9   6 C        2.964    -0.057    29.422     8.897
    10   8 O        0.858    -0.715    29.126     7.236
    11   6 C        2.921    -0.058    29.440     8.898
    12   1 H        0.926     0.003     3.014     2.715
    13   1 H        0.925     0.028     2.612     2.527
    14   1 H        0.924     0.026     2.640     2.541
    15   1 H        0.924     0.026     2.650     2.546
    16   8 O        1.603    -0.718    28.210     7.168
    17   1 H        0.799     0.303     0.714     1.328
    18   1 H        0.805     0.334     0.626     1.243

Wiberg/Mayer (AO) data.
largest (>0.10) Wiberg bond orders for each atom

     #   Z sym  total        # sym  WBO       # sym  WBO       # sym  WBO
 ---------------------------------------------------------------------------
     1   6 C    3.981 --     2 C    1.415    11 C    1.405    12 H    0.972
     2   6 C    3.990 --     5 C    1.476     1 C    1.415     6 H    0.971
     3   6 C    3.998 --     9 C    1.019    13 H    0.985    15 H    0.978
                            14 H    0.978
     4   1 H    1.000 --    11 C    0.970
     5   6 C    3.981 --     2 C    1.476     7 C    1.284     8 H    0.969
     6   1 H    1.000 --     2 C    0.971
     7   6 C    3.964 --    10 O    1.302     5 C    1.284     9 C    1.248
     8   1 H    1.000 --     5 C    0.969
     9   6 C    3.981 --    11 C    1.469     7 C    1.248     3 C    1.019
    10   8 O    1.728 --     7 C    1.302    17 H    0.103
    11   6 C    3.989 --     9 C    1.469     1 C    1.405     4 H    0.970
    12   1 H    1.000 --     1 C    0.972
    13   1 H    0.999 --     3 C    0.985
    14   1 H    0.999 --     3 C    0.978
    15   1 H    0.999 --     3 C    0.978
    16   8 O    1.741 --    18 H    0.888    17 H    0.800
    17   1 H    0.908 --    16 O    0.800    10 O    0.103
    18   1 H    0.888 --    16 O    0.888
 ---------------------------------------------------------------------------

molecular dipole:
                 x           y           z       tot (Debye)
 q only:        5.976       7.512      -3.741
   full:        5.999       7.313      -3.744      25.858

 projected vibrational frequencies (cm⁻¹)
eigval :       -0.00    -0.00    -0.00     0.00     0.00     0.00
eigval :       40.81    52.21    73.99    96.17   153.54   200.98
eigval :      256.04   329.36   409.03   440.88   512.03   533.13
eigval :      548.14   572.46   669.36   763.05   780.15   841.83
eigval :      844.18   885.15   887.26   907.69   993.83  1037.60
eigval :     1095.36  1125.97  1176.42  1210.33  1256.98  1320.16
eigval :     1328.44  1388.70  1451.25  1482.85  1493.36  1495.35
eigval :     1533.46  1551.08  1603.84  2654.35  2970.84  2986.04
eigval :     3011.29  3015.51  3015.87  3035.19  3056.73  3603.31

   temp. (K)  partition function   enthalpy   heat capacity  entropy
                                   cal/mol     cal/K/mol   cal/K/mol   J/K/mol
 298.15  VIB  0.271E+04             4676.428     28.789     29.608
         ROT  0.599E+06              888.752      2.981     29.418
         INT  0.162E+10             5565.181     31.770     59.026
         TR   0.135E+28             1481.254      4.968     40.368
         TOT                        7046.4346    36.7383    99.3945   415.8666

       T/K    H(0)-H(T)+PV         H(T)/Eh          T*S/Eh         G(T)/Eh
   ------------------------------------------------------------------------
    298.15    0.112292E-01    0.149495E+00    0.472255E-01    0.102269E+00
   ------------------------------------------------------------------------

         :::::::::::::::::::::::::::::::::::::::::::::::::::::
         ::                  THERMODYNAMIC                  ::
         :::::::::::::::::::::::::::::::::::::::::::::::::::::
         :: total free energy         -27.898644771459 Eh   ::
         ::.................................................::
         :: total energy              -28.000913967940 Eh   ::
         :: zero point energy           0.138265520568 Eh   ::
         :: G(RRHO) w/o ZPVE           -0.035996324087 Eh   ::
         :: G(RRHO) contrib.            0.102269196482 Eh   ::
         :::::::::::::::::::::::::::::::::::::::::::::::::::::

           -------------------------------------------------
          | TOTAL ENERGY              -28.000913967940 Eh   |
          | TOTAL ENTHALPY            -27.851419239047 Eh   |
          | TOTAL FREE ENERGY         -27.898644771459 Eh   |
          | GRADIENT NORM               0.000971806164 Eh/α |
          | HOMO-LUMO GAP               3.542348245946 eV   |
           -------------------------------------------------

 * finished run on 2025/10/18 at 02:21:26.879
normal termination of xtb
