   * xtb version 6.7.1 (edcfbbe) compiled by 'albert@albert-system' on 2024-07-22

   ID    Z sym.   atoms
    1    6 C      1-3, 5, 7, 9, 11
    2    1 H      4, 6, 8, 12-15, 17, 18
    3    8 O      10, 16

          program call               : xtb tb_lite_results_shiftn0p2_gp526_b0_rot180_complex.xyz --ohess --chrg -1 --alpb water
      * Solvation model:               ALPB
        Solvent                        water
        Solvent mass                       1.8000E+01 g/mol
          :  Hamiltonian                  GFN2-xTB          :
 * total energy  :   -27.9945222 Eh     change       -0.6355307E-09 Eh
 * total energy  :   -27.9989074 Eh     change       -0.4385229E-02 Eh
 * total energy  :   -27.9993020 Eh     change       -0.3945577E-03 Eh
 * total energy  :   -27.9993838 Eh     change       -0.8180107E-04 Eh
 * total energy  :   -27.9994718 Eh     change       -0.8801844E-04 Eh
 * total energy  :   -27.9995659 Eh     change       -0.9403875E-04 Eh
 * total energy  :   -27.9996401 Eh     change       -0.7422898E-04 Eh
 * total energy  :   -27.9996492 Eh     change       -0.9086248E-05 Eh
 * total energy  :   -27.9997429 Eh     change       -0.9369974E-04 Eh
 * total energy  :   -27.9997893 Eh     change       -0.4644002E-04 Eh
 * total energy  :   -28.0009181 Eh     change       -0.4032100E-04 Eh
 * total energy  :   -28.0009278 Eh     change       -0.9682093E-05 Eh
 * total energy  :   -28.0009542 Eh     change       -0.2635821E-04 Eh
 * total energy  :   -28.0009621 Eh     change       -0.7947755E-05 Eh
 * total energy  :   -28.0009684 Eh     change       -0.6289167E-05 Eh
 * total energy  :   -28.0009634 Eh     change        0.4979094E-05 Eh
 * total energy  :   -28.0009728 Eh     change       -0.9413932E-05 Eh
 * total energy  :   -28.0009763 Eh     change       -0.3474485E-05 Eh
 * total energy  :   -28.0009786 Eh     change       -0.2333818E-05 Eh
   *** GEOMETRY OPTIMIZATION CONVERGED AFTER 37 ITERATIONS ***

 final structure:
================
18
 xtb: 6.7.1 (edcfbbe)
C           -5.13051965335620       -6.63237611995406        3.03045718816340
C           -5.11033225269611       -5.34266614453503        3.53390977134733
C           -2.96812880939405       -6.25522085596846       -0.06415733546792
H           -4.43428508236565       -7.90816380341299        1.45921020527172
C           -4.40967598869183       -4.34855871650919        2.88776419684108
H           -5.64843553704230       -5.10600798295701        4.44399770312703
C           -3.68867166606506       -4.59439544527661        1.69749581294900
H           -4.39307611967513       -3.33969803799449        3.28385901453452
C           -3.71862105953068       -5.92757571136869        1.19738281879203
O           -3.03252842909077       -3.65476892879948        1.08580997730229
C           -4.42941915170094       -6.90301106253365        1.86523180650378
H           -5.68049246522890       -7.41394134767386        3.53496573915165
H           -2.46575958407320       -5.35283421507142       -0.41008767404665
H           -2.22222521945661       -7.02966654720051        0.11533072114831
H           -3.64715368305970       -6.60267805696611       -0.84325498341029
O           -3.20411910305290       -1.20518563186166        1.99412061950322
H           -3.10845153631247       -2.15804510603691        1.68913509436471
H           -3.48927044789665       -0.72876474691277        1.20726574961528

          :  Hamiltonian                  GFN2-xTB          :
         :: gradient norm              0.000775735319 Eh/a0 ::
         :: HOMO-LUMO gap              3.541114229298 eV    ::
         :: SCC energy               -28.381699905292 Eh    ::
         :: -> dispersion             -0.014125259896 Eh    ::
         :: -> Gsolv                  -0.100068020923 Eh    ::
         :: repulsion energy           0.380721259414 Eh    ::

    * Orbital Energies and Occupations

         #    Occupation            Energy/Eh            Energy/eV
      -------------------------------------------------------------
         1        2.0000           -0.6455974             -17.5676
       ...           ...                  ...                  ...
        13        2.0000           -0.4748483             -12.9213
        14        2.0000           -0.4684987             -12.7485
        15        2.0000           -0.4468269             -12.1588
        16        2.0000           -0.4463391             -12.1455
        17        2.0000           -0.4448913             -12.1061
        18        2.0000           -0.4382010             -11.9241
        19        2.0000           -0.4120433             -11.2123
        20        2.0000           -0.4101487             -11.1607
        21        2.0000           -0.4057582             -11.0412
        22        2.0000           -0.3988719             -10.8539
        23        2.0000           -0.3660279              -9.9601
        24        2.0000           -0.3353809              -9.1262
        25        2.0000           -0.3172897              -8.6339 (HOMO)
        26                         -0.1871561              -5.0928 (LUMO)
        27                         -0.1685329              -4.5860
        28                         -0.0529807              -1.4417
        29                          0.1180460               3.2122
        30                          0.1326166               3.6087
        31                          0.1453760               3.9559
        32                          0.1812796               4.9329
        33                          0.1859254               5.0593
        34                          0.1941223               5.2823
        35                          0.2202102               5.9922
        36                          0.2382447               6.4830
       ...                                ...                  ...
        45                          0.7004548              19.0603
      -------------------------------------------------------------
                  HL-Gap            0.1301336 Eh            3.5411 eV

     #   Z          covCN         q      C6AA      α(0)
     1   6 C        2.916    -0.076    29.903     8.967
     2   6 C        2.916    -0.052    29.286     8.874
     3   6 C        3.756    -0.092    22.316     6.735
     4   1 H        0.925     0.004     2.985     2.702
     5   6 C        2.917    -0.098    30.476     9.053
     6   1 H        0.925    -0.002     3.096     2.752
     7   6 C        2.838     0.155    24.629     8.133
     8   1 H        0.925    -0.011     3.247     2.818
     9   6 C        2.964    -0.058    29.426     8.898
    10   8 O        0.858    -0.715    29.124     7.235
    11   6 C        2.921    -0.058    29.440     8.898
    12   1 H        0.926     0.003     3.014     2.715
    13   1 H        0.925     0.028     2.610     2.527
    14   1 H        0.925     0.026     2.648     2.545
    15   1 H        0.924     0.026     2.640     2.541
    16   8 O        1.603    -0.718    28.189     7.166
    17   1 H        0.799     0.302     0.716     1.330
    18   1 H        0.805     0.335     0.624     1.241

Wiberg/Mayer (AO) data.
largest (>0.10) Wiberg bond orders for each atom

     #   Z sym  total        # sym  WBO       # sym  WBO       # sym  WBO
 ---------------------------------------------------------------------------
     1   6 C    3.981 --     2 C    1.414    11 C    1.406    12 H    0.972
     2   6 C    3.990 --     5 C    1.477     1 C    1.414     6 H    0.971
     3   6 C    3.998 --     9 C    1.019    13 H    0.985    14 H    0.978
                            15 H    0.978
     4   1 H    1.000 --    11 C    0.970
     5   6 C    3.981 --     2 C    1.477     7 C    1.283     8 H    0.970
     6   1 H    1.000 --     2 C    0.971
     7   6 C    3.964 --    10 O    1.303     5 C    1.283     9 C    1.248
     8   1 H    1.000 --     5 C    0.970
     9   6 C    3.981 --    11 C    1.469     7 C    1.248     3 C    1.019
    10   8 O    1.727 --     7 C    1.303    17 H    0.101
    11   6 C    3.989 --     9 C    1.469     1 C    1.406     4 H    0.970
    12   1 H    1.000 --     1 C    0.972
    13   1 H    0.999 --     3 C    0.985
    14   1 H    0.999 --     3 C    0.978
    15   1 H    0.999 --     3 C    0.978
    16   8 O    1.741 --    18 H    0.887    17 H    0.802
    17   1 H    0.909 --    16 O    0.802    10 O    0.101
    18   1 H    0.888 --    16 O    0.887
 ---------------------------------------------------------------------------

molecular dipole:
                 x           y           z       tot (Debye)
 q only:        6.469       7.342      -3.700
   full:        6.386       7.208      -3.811      26.324

 projected vibrational frequencies (cm⁻¹)
eigval :       -0.00    -0.00     0.00     0.00     0.00     0.00
eigval :       30.29    49.51    61.32    75.58   152.71   201.56
eigval :      255.54   328.96   409.00   439.47   511.73   530.65
eigval :      549.56   575.19   669.10   761.79   780.45   841.01
eigval :      844.35   879.34   886.91   907.25   993.75  1037.75
eigval :     1094.92  1126.06  1176.32  1210.08  1256.82  1320.40
eigval :     1330.04  1388.74  1451.69  1483.04  1493.46  1496.17
eigval :     1536.60  1550.98  1604.22  2680.87  2971.13  2986.52
eigval :     3011.32  3015.76  3016.19  3033.25  3056.89  3603.00

   temp. (K)  partition function   enthalpy   heat capacity  entropy
                                   cal/mol     cal/K/mol   cal/K/mol   J/K/mol
 298.15  VIB  0.533E+04             4738.342     28.361     30.262
         ROT  0.602E+06              888.752      2.981     29.428
         INT  0.321E+10             5627.094     31.342     59.690
         TR   0.135E+28             1481.254      4.968     40.368
         TOT                        7108.3484    36.3103   100.0587   418.6457

       T/K    H(0)-H(T)+PV         H(T)/Eh          T*S/Eh         G(T)/Eh
   ------------------------------------------------------------------------
    298.15    0.113279E-01    0.149538E+00    0.475411E-01    0.101997E+00
   ------------------------------------------------------------------------

         :::::::::::::::::::::::::::::::::::::::::::::::::::::
         ::                  THERMODYNAMIC                  ::
         :::::::::::::::::::::::::::::::::::::::::::::::::::::
         :: total free energy         -27.898981704415 Eh   ::
         ::.................................................::
         :: total energy              -28.000978646731 Eh   ::
         :: zero point energy           0.138210197783 Eh   ::
         :: G(RRHO) w/o ZPVE           -0.036213255467 Eh   ::
         :: G(RRHO) contrib.            0.101996942316 Eh   ::
         :::::::::::::::::::::::::::::::::::::::::::::::::::::

           -------------------------------------------------
          | TOTAL ENERGY              -28.000978646731 Eh   |
          | TOTAL ENTHALPY            -27.851440574741 Eh   |
          | TOTAL FREE ENERGY         -27.898981704415 Eh   |
          | GRADIENT NORM               0.000776865529 Eh/α |
          | HOMO-LUMO GAP               3.541115337109 eV   |
           -------------------------------------------------

 * finished run on 2025/10/18 at 02:21:17.763
normal termination of xtb
