   * xtb version 6.7.1 (edcfbbe) compiled by 'albert@albert-system' on 2024-07-22

   ID    Z sym.   atoms
    1    6 C      1-3, 5, 7, 9, 11
    2    1 H      4, 6, 8, 12-15, 17, 18
    3    8 O      10, 16

          program call               : xtb tb_lite_results_shiftn0p1_gp526_b0_rot180_complex.xyz --ohess --chrg -1 --alpb water
      * Solvation model:               ALPB
        Solvent                        water
        Solvent mass                       1.8000E+01 g/mol
          :  Hamiltonian                  GFN2-xTB          :
 * total energy  :   -27.9949103 Eh     change       -0.5786909E-09 Eh
 * total energy  :   -27.9986992 Eh     change       -0.3788879E-02 Eh
 * total energy  :   -27.9991644 Eh     change       -0.4651650E-03 Eh
 * total energy  :   -27.9993366 Eh     change       -0.1722665E-03 Eh
 * total energy  :   -27.9994566 Eh     change       -0.1199466E-03 Eh
 * total energy  :   -27.9994893 Eh     change       -0.3273551E-04 Eh
 * total energy  :   -27.9995804 Eh     change       -0.9105439E-04 Eh
 * total energy  :   -27.9996220 Eh     change       -0.4160258E-04 Eh
 * total energy  :   -27.9996722 Eh     change       -0.5025265E-04 Eh
 * total energy  :   -27.9997673 Eh     change       -0.9508201E-04 Eh
 * total energy  :   -28.0008386 Eh     change       -0.3750564E-04 Eh
 * total energy  :   -28.0008709 Eh     change       -0.3230962E-04 Eh
 * total energy  :   -28.0008839 Eh     change       -0.1299499E-04 Eh
 * total energy  :   -28.0009120 Eh     change       -0.2808418E-04 Eh
 * total energy  :   -28.0009307 Eh     change       -0.1871122E-04 Eh
 * total energy  :   -28.0009486 Eh     change       -0.1790296E-04 Eh
 * total energy  :   -28.0009603 Eh     change       -0.1167686E-04 Eh
 * total energy  :   -28.0009718 Eh     change       -0.1157065E-04 Eh
 * total energy  :   -28.0009765 Eh     change       -0.4634525E-05 Eh
   *** GEOMETRY OPTIMIZATION CONVERGED AFTER 33 ITERATIONS ***

 final structure:
================
18
 xtb: 6.7.1 (edcfbbe)
C           -5.09573443068960       -6.62968050179034        3.05328093173132
C           -5.10067304268322       -5.33493256007473        3.54371460717954
C           -2.96063341900378       -6.23678649799409       -0.05803873382619
H           -4.38040905740111       -7.90601540463776        1.49102947371495
C           -4.42767194894072       -4.33167842080996        2.88237959343419
H           -5.63678869453184       -5.10146169942370        4.45572375478803
C           -3.70990047008223       -4.57325462543613        1.68940209508439
H           -4.43072382828636       -3.31900437349012        3.26880200112924
C           -3.71204535772228       -5.91229260528664        1.20375010863010
O           -3.08222974710282       -3.62464005330289        1.06202853926183
C           -4.39636540219384       -6.89657656504659        1.88606433153507
H           -5.62447716586911       -7.41812876198075        3.56968276025443
H           -2.46975210461116       -5.33025974299187       -0.40956321537939
H           -2.20571971470686       -7.00197799883376        0.12345546931366
H           -3.63728094598591       -6.59537717913294       -0.83416176277762
O           -3.25069612031084       -1.17391768896774        1.97427832623885
H           -3.15478325051761       -2.12539038202854        1.66742638557274
H           -3.56081577868394       -0.70264618929054        1.19471645043835

          :  Hamiltonian                  GFN2-xTB          :
         :: gradient norm              0.000684039446 Eh/a0 ::
         :: HOMO-LUMO gap              3.539760919900 eV    ::
         :: SCC energy               -28.381902391867 Eh    ::
         :: -> dispersion             -0.014122016374 Eh    ::
         :: -> Gsolv                  -0.100054664673 Eh    ::
         :: repulsion energy           0.380925912244 Eh    ::

    * Orbital Energies and Occupations

         #    Occupation            Energy/Eh            Energy/eV
      -------------------------------------------------------------
         1        2.0000           -0.6458378             -17.5741
       ...           ...                  ...                  ...
        13        2.0000           -0.4748311             -12.9208
        14        2.0000           -0.4685798             -12.7507
        15        2.0000           -0.4468423             -12.1592
        16        2.0000           -0.4462827             -12.1440
        17        2.0000           -0.4448491             -12.1050
        18        2.0000           -0.4382099             -11.9243
        19        2.0000           -0.4120069             -11.2113
        20        2.0000           -0.4103295             -11.1656
        21        2.0000           -0.4057649             -11.0414
        22        2.0000           -0.3988568             -10.8534
        23        2.0000           -0.3659951              -9.9592
        24        2.0000           -0.3352928              -9.1238
        25        2.0000           -0.3172149              -8.6319 (HOMO)
        26                         -0.1871311              -5.0921 (LUMO)
        27                         -0.1684785              -4.5845
        28                         -0.0529493              -1.4408
        29                          0.1185814               3.2268
        30                          0.1328204               3.6142
        31                          0.1454923               3.9590
        32                          0.1812774               4.9328
        33                          0.1860017               5.0614
        34                          0.1941656               5.2835
        35                          0.2202137               5.9923
        36                          0.2382368               6.4828
       ...                                ...                  ...
        45                          0.7005144              19.0620
      -------------------------------------------------------------
                  HL-Gap            0.1300839 Eh            3.5398 eV

     #   Z          covCN         q      C6AA      α(0)
     1   6 C        2.916    -0.076    29.904     8.967
     2   6 C        2.916    -0.052    29.287     8.874
     3   6 C        3.756    -0.092    22.315     6.735
     4   1 H        0.925     0.004     2.987     2.703
     5   6 C        2.917    -0.098    30.478     9.053
     6   1 H        0.925    -0.002     3.097     2.752
     7   6 C        2.838     0.155    24.629     8.133
     8   1 H        0.925    -0.011     3.250     2.819
     9   6 C        2.964    -0.058    29.427     8.898
    10   8 O        0.858    -0.715    29.133     7.237
    11   6 C        2.921    -0.058    29.440     8.898
    12   1 H        0.926     0.002     3.015     2.715
    13   1 H        0.925     0.028     2.611     2.527
    14   1 H        0.925     0.026     2.649     2.545
    15   1 H        0.924     0.026     2.641     2.541
    16   8 O        1.603    -0.717    28.173     7.164
    17   1 H        0.799     0.302     0.716     1.330
    18   1 H        0.805     0.336     0.623     1.240

Wiberg/Mayer (AO) data.
largest (>0.10) Wiberg bond orders for each atom

     #   Z sym  total        # sym  WBO       # sym  WBO       # sym  WBO
 ---------------------------------------------------------------------------
     1   6 C    3.981 --     2 C    1.414    11 C    1.405    12 H    0.972
     2   6 C    3.990 --     5 C    1.477     1 C    1.414     6 H    0.971
     3   6 C    3.998 --     9 C    1.019    13 H    0.985    14 H    0.979
                            15 H    0.978
     4   1 H    1.000 --    11 C    0.970
     5   6 C    3.981 --     2 C    1.477     7 C    1.284     8 H    0.970
     6   1 H    1.000 --     2 C    0.971
     7   6 C    3.964 --    10 O    1.303     5 C    1.284     9 C    1.247
     8   1 H    1.000 --     5 C    0.970
     9   6 C    3.981 --    11 C    1.470     7 C    1.247     3 C    1.019
    10   8 O    1.726 --     7 C    1.303    17 H    0.100
    11   6 C    3.989 --     9 C    1.470     1 C    1.405     4 H    0.970
    12   1 H    1.000 --     1 C    0.972
    13   1 H    0.999 --     3 C    0.985
    14   1 H    0.999 --     3 C    0.979
    15   1 H    0.999 --     3 C    0.978
    16   8 O    1.742 --    18 H    0.887    17 H    0.803
    17   1 H    0.909 --    16 O    0.803    10 O    0.100
    18   1 H    0.887 --    16 O    0.887
 ---------------------------------------------------------------------------

molecular dipole:
                 x           y           z       tot (Debye)
 q only:        6.517       7.300      -3.670
   full:        6.432       7.163      -3.780      26.287

 projected vibrational frequencies (cm⁻¹)
eigval :       -0.00     0.00     0.00     0.00     0.00     0.00
eigval :       39.22    41.72    67.22   152.62   184.44   200.29
eigval :      255.40   328.19   408.82   439.10   511.48   528.36
eigval :      547.63   573.88   669.18   761.63   780.27   840.68
eigval :      844.20   873.78   886.38   907.00   993.57  1037.75
eigval :     1094.88  1126.07  1176.31  1210.03  1256.72  1320.38
eigval :     1330.15  1388.71  1451.73  1482.68  1493.39  1496.07
eigval :     1536.74  1551.06  1604.22  2693.24  2971.03  2986.45
eigval :     3011.56  3015.63  3016.12  3033.46  3056.73  3615.95

   temp. (K)  partition function   enthalpy   heat capacity  entropy
                                   cal/mol     cal/K/mol   cal/K/mol   J/K/mol
 298.15  VIB  0.237E+04             4611.163     28.498     28.599
         ROT  0.603E+06              888.752      2.981     29.431
         INT  0.143E+10             5499.915     31.479     58.031
         TR   0.135E+28             1481.254      4.968     40.368
         TOT                        6981.1692    36.4474    98.3989   411.7009

       T/K    H(0)-H(T)+PV         H(T)/Eh          T*S/Eh         G(T)/Eh
   ------------------------------------------------------------------------
    298.15    0.111252E-01    0.149620E+00    0.467525E-01    0.102867E+00
   ------------------------------------------------------------------------

         :::::::::::::::::::::::::::::::::::::::::::::::::::::
         ::                  THERMODYNAMIC                  ::
         :::::::::::::::::::::::::::::::::::::::::::::::::::::
         :: total free energy         -27.898109094659 Eh   ::
         ::.................................................::
         :: total energy              -28.000976480293 Eh   ::
         :: zero point energy           0.138494665888 Eh   ::
         :: G(RRHO) w/o ZPVE           -0.035627280253 Eh   ::
         :: G(RRHO) contrib.            0.102867385635 Eh   ::
         :::::::::::::::::::::::::::::::::::::::::::::::::::::

           -------------------------------------------------
          | TOTAL ENERGY              -28.000976480293 Eh   |
          | TOTAL ENTHALPY            -27.851356613130 Eh   |
          | TOTAL FREE ENERGY         -27.898109094659 Eh   |
          | GRADIENT NORM               0.000684227138 Eh/α |
          | HOMO-LUMO GAP               3.539761857265 eV   |
           -------------------------------------------------

 * finished run on 2025/10/18 at 02:21:20.755
normal termination of xtb
