   * xtb version 6.7.1 (edcfbbe) compiled by 'albert@albert-system' on 2024-07-22

   ID    Z sym.   atoms
    1    6 C      1-3, 6
    2    8 O      4, 5, 16
    3    1 H      7-15, 17, 18

          program call               : xtb tb_lite_results_shiftn0p25_gp263_b0_rot0_complex.xyz --ohess --chrg -1 --alpb water
      * Solvation model:               ALPB
        Solvent                        water
        Solvent mass                       1.8000E+01 g/mol
          :  Hamiltonian                  GFN2-xTB          :
 * total energy  :   -26.6326648 Eh     change       -0.1066667E-09 Eh
 * total energy  :   -26.6399338 Eh     change       -0.7269048E-02 Eh
 * total energy  :   -26.6411041 Eh     change       -0.1170291E-02 Eh
 * total energy  :   -26.6414719 Eh     change       -0.3677250E-03 Eh
 * total energy  :   -26.6417728 Eh     change       -0.3008992E-03 Eh
 * total energy  :   -26.6418665 Eh     change       -0.9372727E-04 Eh
 * total energy  :   -26.6418894 Eh     change       -0.2288070E-04 Eh
 * total energy  :   -26.6419802 Eh     change       -0.9084463E-04 Eh
 * total energy  :   -26.6420044 Eh     change       -0.2424259E-04 Eh
 * total energy  :   -26.6420264 Eh     change       -0.2191409E-04 Eh
 * total energy  :   -26.6422689 Eh     change       -0.6544585E-05 Eh
 * total energy  :   -26.6422796 Eh     change       -0.1076926E-04 Eh
 * total energy  :   -26.6422894 Eh     change       -0.9716885E-05 Eh
 * total energy  :   -26.6423026 Eh     change       -0.1320188E-04 Eh
 * total energy  :   -26.6423141 Eh     change       -0.1153366E-04 Eh
 * total energy  :   -26.6423288 Eh     change       -0.1467224E-04 Eh
 * total energy  :   -26.6423290 Eh     change       -0.2322826E-06 Eh
 * total energy  :   -26.6423379 Eh     change       -0.8920066E-05 Eh
 * total energy  :   -26.6423422 Eh     change       -0.4280148E-05 Eh
   *** GEOMETRY OPTIMIZATION CONVERGED AFTER 30 ITERATIONS ***

 final structure:
================
18
 xtb: 6.7.1 (edcfbbe)
C           -4.39554318254521       -3.72107798492114       -3.26414220227504
C           -3.44480786529044       -2.65999789631158       -2.73552353571530
C           -4.08948086263463       -1.76777107463289       -1.64959084885240
O           -3.23758030947576       -0.88605580628660       -1.07511226418004
O           -5.44577977670834       -3.11656626122565       -3.98998939293600
C           -6.41487330945693       -4.04823957274422       -4.42631738773003
H           -5.96148060435871       -4.79951999418350       -5.08254706095424
H           -6.88055523333508       -4.55222560392469       -3.57196054829415
H           -7.15940840651959       -3.47430886547526       -4.97136014486266
H           -3.85330260110128       -4.41902487526825       -3.92262008966890
H           -4.81005019939899       -4.29318742576677       -2.41885718484127
H           -2.57031768212536       -3.13871606000064       -2.29125046607464
H           -3.11104887898406       -2.01567219238254       -3.55007509492831
H           -4.95123361851697       -1.23005714771293       -2.11647316797542
H           -4.54105815239015       -2.45260559344029       -0.87992213249636
O           -1.31237525170222       -2.17598036398184       -0.02029171922085
H           -2.08893107755973       -1.65400184760028       -0.46434348043511
H           -1.01485523623784       -1.58945242569967        0.68138041994186

          :  Hamiltonian                  GFN2-xTB          :
         :: gradient norm              0.000467822585 Eh/a0 ::
         :: HOMO-LUMO gap              9.516294873175 eV    ::
         :: SCC energy               -26.859737056292 Eh    ::
         :: -> dispersion             -0.010245998883 Eh    ::
         :: -> Gsolv                  -0.123257569585 Eh    ::
         :: repulsion energy           0.217394850640 Eh    ::

    * Orbital Energies and Occupations

         #    Occupation            Energy/Eh            Energy/eV
      -------------------------------------------------------------
         1        2.0000           -0.7022277             -19.1086
       ...           ...                  ...                  ...
        11        2.0000           -0.5163076             -14.0494
        12        2.0000           -0.4938772             -13.4391
        13        2.0000           -0.4835451             -13.1579
        14        2.0000           -0.4738754             -12.8948
        15        2.0000           -0.4701458             -12.7933
        16        2.0000           -0.4585381             -12.4775
        17        2.0000           -0.4465062             -12.1501
        18        2.0000           -0.4348496             -11.8329
        19        2.0000           -0.4305285             -11.7153
        20        2.0000           -0.4027799             -10.9602
        21        2.0000           -0.4000987             -10.8872
        22        2.0000           -0.3251620              -8.8481
        23        2.0000           -0.3240306              -8.8173 (HOMO)
        24                          0.0256869               0.6990 (LUMO)
        25                          0.0901675               2.4536
        26                          0.1148858               3.1262
        27                          0.1192321               3.2445
        28                          0.1206174               3.2822
        29                          0.1431901               3.8964
        30                          0.1475029               4.0138
        31                          0.1708567               4.6492
        32                          0.1796014               4.8872
        33                          0.1958043               5.3281
        34                          0.2006801               5.4608
       ...                                ...                  ...
        39                          0.3313618               9.0168
      -------------------------------------------------------------
                  HL-Gap            0.3497175 Eh            9.5163 eV

     #   Z          covCN         q      C6AA      α(0)
     1   6 C        3.703     0.090    19.230     6.270
     2   6 C        3.798    -0.077    21.983     6.676
     3   6 C        3.667     0.163    18.209     6.119
     4   8 O        0.870    -0.825    32.336     7.624
     5   8 O        1.700    -0.364    20.154     6.061
     6   6 C        3.652     0.030    20.375     6.482
     7   1 H        0.924     0.047     2.355     2.400
     8   1 H        0.924     0.039     2.456     2.451
     9   1 H        0.925     0.081     1.967     2.193
    10   1 H        0.923     0.023     2.683     2.562
    11   1 H        0.923     0.012     2.866     2.647
    12   1 H        0.924     0.036     2.505     2.475
    13   1 H        0.924     0.031     2.566     2.505
    14   1 H        0.920    -0.074     4.743     3.406
    15   1 H        0.919    -0.087     5.125     3.541
    16   8 O        1.593    -0.741    28.846     7.248
    17   1 H        0.805     0.292     0.745     1.356
    18   1 H        0.805     0.324     0.653     1.270

Wiberg/Mayer (AO) data.
largest (>0.10) Wiberg bond orders for each atom

     #   Z sym  total        # sym  WBO       # sym  WBO       # sym  WBO
 ---------------------------------------------------------------------------
     1   6 C    3.955 --     2 C    1.006     5 O    0.979    11 H    0.967
                            10 H    0.967
     2   6 C    3.993 --     1 C    1.006    13 H    0.978    12 H    0.975
                             3 C    0.970
     3   6 C    3.984 --     4 O    1.100     2 C    0.970    14 H    0.953
                            15 H    0.945
     4   8 O    1.444 --     3 C    1.100    17 H    0.159
     5   8 O    2.042 --     1 C    0.979     6 C    0.979
     6   6 C    3.934 --     5 O    0.979     9 H    0.978     8 H    0.978
                             7 H    0.977
     7   1 H    0.998 --     6 C    0.977
     8   1 H    0.998 --     6 C    0.978
     9   1 H    0.993 --     6 C    0.978
    10   1 H    0.999 --     1 C    0.967
    11   1 H    1.000 --     1 C    0.967
    12   1 H    0.998 --     2 C    0.975
    13   1 H    0.999 --     2 C    0.978
    14   1 H    0.994 --     3 C    0.953
    15   1 H    0.992 --     3 C    0.945
    16   8 O    1.721 --    18 H    0.894    17 H    0.751
    17   1 H    0.915 --    16 O    0.751     4 O    0.159
    18   1 H    0.895 --    16 O    0.894
 ---------------------------------------------------------------------------

molecular dipole:
                 x           y           z       tot (Debye)
 q only:        5.656       2.324       2.064
   full:        5.460       2.197       2.084      15.868

 projected vibrational frequencies (cm⁻¹)
eigval :       -0.00    -0.00    -0.00    -0.00     0.00     0.00
eigval :       31.75    52.61    76.43    80.59    97.36   132.75
eigval :      221.00   253.30   305.68   354.53   381.20   549.56
eigval :      647.39   782.65   886.62   915.30  1008.70  1038.50
eigval :     1053.33  1091.58  1096.10  1109.84  1128.09  1165.29
eigval :     1203.45  1235.83  1299.13  1307.72  1344.22  1374.05
eigval :     1386.07  1453.10  1468.16  1475.53  1484.05  1506.42
eigval :     1567.23  2126.06  2477.33  2634.40  2812.98  2853.94
eigval :     2896.08  2919.44  2979.27  2989.25  3033.57  3626.71

   temp. (K)  partition function   enthalpy   heat capacity  entropy
                                   cal/mol     cal/K/mol   cal/K/mol   J/K/mol
 298.15  VIB  0.911E+04             4780.834     26.028     31.837
         ROT  0.415E+06              888.752      2.981     28.688
         INT  0.378E+10             5669.587     29.009     60.525
         TR   0.107E+28             1481.254      4.968     39.905
         TOT                        7150.8406    33.9770   100.4302   420.1999

       T/K    H(0)-H(T)+PV         H(T)/Eh          T*S/Eh         G(T)/Eh
   ------------------------------------------------------------------------
    298.15    0.113956E-01    0.157003E+00    0.477176E-01    0.109285E+00
   ------------------------------------------------------------------------

         :::::::::::::::::::::::::::::::::::::::::::::::::::::
         ::                  THERMODYNAMIC                  ::
         :::::::::::::::::::::::::::::::::::::::::::::::::::::
         :: total free energy         -26.533057222348 Eh   ::
         ::.................................................::
         :: total energy              -26.642342204395 Eh   ::
         :: zero point energy           0.145607016222 Eh   ::
         :: G(RRHO) w/o ZPVE           -0.036322034174 Eh   ::
         :: G(RRHO) contrib.            0.109284982047 Eh   ::
         :::::::::::::::::::::::::::::::::::::::::::::::::::::

           -------------------------------------------------
          | TOTAL ENERGY              -26.642342204395 Eh   |
          | TOTAL ENTHALPY            -26.485339598238 Eh   |
          | TOTAL FREE ENERGY         -26.533057222348 Eh   |
          | GRADIENT NORM               0.000467743529 Eh/α |
          | HOMO-LUMO GAP               9.516298844384 eV   |
           -------------------------------------------------

 * finished run on 2025/10/18 at 01:17:02.781
normal termination of xtb
