   * xtb version 6.7.1 (edcfbbe) compiled by 'albert@albert-system' on 2024-07-22

   ID    Z sym.   atoms
    1    6 C      1-3, 6
    2    8 O      4, 5
    3    1 H      7-15

          program call               : xtb tb_lite_results_shiftn0p3_gp263_b0_rot90_solute.xyz --ohess --chrg -1
          :  Hamiltonian                  GFN2-xTB          :
 * total energy  :   -21.4201505 Eh     change       -0.1283560E-09 Eh
 * total energy  :   -21.4233763 Eh     change       -0.3225817E-02 Eh
 * total energy  :   -21.4237344 Eh     change       -0.3581101E-03 Eh
 * total energy  :   -21.4238305 Eh     change       -0.9611233E-04 Eh
 * total energy  :   -21.4239272 Eh     change       -0.9669552E-04 Eh
 * total energy  :   -21.4239750 Eh     change       -0.4782751E-04 Eh
 * total energy  :   -21.4240261 Eh     change       -0.5107221E-04 Eh
 * total energy  :   -21.4240619 Eh     change       -0.3573895E-04 Eh
 * total energy  :   -21.4240829 Eh     change       -0.2107395E-04 Eh
 * total energy  :   -21.4241014 Eh     change       -0.1848246E-04 Eh
 * total energy  :   -21.4241157 Eh     change       -0.1424952E-04 Eh
 * total energy  :   -21.4241313 Eh     change       -0.1559488E-04 Eh
 * total energy  :   -21.4241436 Eh     change       -0.1237329E-04 Eh
 * total energy  :   -21.4241546 Eh     change       -0.1096493E-04 Eh
 * total energy  :   -21.4241610 Eh     change       -0.6367775E-05 Eh
 * total energy  :   -21.4241685 Eh     change       -0.7556857E-05 Eh
 * total energy  :   -21.4241729 Eh     change       -0.4405209E-05 Eh
   *** GEOMETRY OPTIMIZATION CONVERGED AFTER 17 ITERATIONS ***

 final structure:
================
15
 xtb: 6.7.1 (edcfbbe)
C           -4.49743600648620       -3.72617513565378       -3.18590314961033
C           -3.48867139628267       -2.69277786326080       -2.71179724994601
C           -4.03072120107899       -1.74540747680191       -1.55725954035070
O           -3.16271398627843       -0.91636353721623       -1.07437247866319
O           -5.30042470990104       -3.20317441443141       -4.23178130640630
C           -6.35728020731446       -4.04232998140540       -4.57112544954647
H           -6.00030772154884       -5.02658399728722       -4.91790166773627
H           -7.03468275339376       -4.20909255509933       -3.71984124888061
H           -6.90890362054605       -3.55898981009197       -5.37746281041913
H           -3.99796263135820       -4.64474661483526       -3.55841905225390
H           -5.14418150192386       -4.02408315863445       -2.34200013521060
H           -2.60221777559435       -3.20199960493594       -2.32532987091452
H           -3.18474891956315       -2.07190593782471       -3.55514737497180
H           -4.97021678042954       -1.26074394399416       -2.00839298775931
H           -4.46787614122567       -2.49304720059222       -0.78100290444958

          :  Hamiltonian                  GFN2-xTB          :
         :: gradient norm              0.000893954530 Eh/a0 ::
         :: HOMO-LUMO gap              7.068754339813 eV    ::
         :: SCC energy               -21.612170438386 Eh    ::
         :: -> dispersion             -0.008930458476 Eh    ::
         :: repulsion energy           0.187997513398 Eh    ::

    * Orbital Energies and Occupations

         #    Occupation            Energy/Eh            Energy/eV
      -------------------------------------------------------------
         1        2.0000           -0.5730689             -15.5940
       ...           ...                  ...                  ...
         7        2.0000           -0.3988783             -10.8540
         8        2.0000           -0.3854210             -10.4878
         9        2.0000           -0.3684469             -10.0260
        10        2.0000           -0.3438242              -9.3559
        11        2.0000           -0.3371670              -9.1748
        12        2.0000           -0.3069244              -8.3518
        13        2.0000           -0.3010114              -8.1909
        14        2.0000           -0.2797541              -7.6125
        15        2.0000           -0.2590055              -7.0479
        16        2.0000           -0.2516954              -6.8490
        17        2.0000           -0.2221914              -6.0461
        18        2.0000           -0.0995096              -2.7078
        19        2.0000           -0.0948538              -2.5811 (HOMO)
        20                          0.1649181               4.4877 (LUMO)
        21                          0.2230586               6.0697
        22                          0.2448312               6.6622
        23                          0.2454521               6.6791
        24                          0.2789737               7.5913
        25                          0.2890582               7.8657
        26                          0.2976276               8.0989
        27                          0.3129545               8.5159
        28                          0.3259578               8.8698
        29                          0.3406007               9.2682
        30                          0.3673519               9.9962
       ...                                ...                  ...
        33                          0.6179424              16.8151
      -------------------------------------------------------------
                  HL-Gap            0.2597720 Eh            7.0688 eV

     #   Z          covCN         q      C6AA      α(0)
     1   6 C        3.704     0.100    19.065     6.242
     2   6 C        3.791    -0.079    22.023     6.683
     3   6 C        3.641     0.198    17.785     6.064
     4   8 O        0.855    -0.755    30.264     7.376
     5   8 O        1.701    -0.318    19.307     5.933
     6   6 C        3.657     0.061    19.832     6.392
     7   1 H        0.923     0.004     2.996     2.707
     8   1 H        0.923     0.013     2.843     2.637
     9   1 H        0.925     0.035     2.517     2.481
    10   1 H        0.922    -0.024     3.517     2.933
    11   1 H        0.923    -0.001     3.069     2.740
    12   1 H        0.924     0.005     2.978     2.698
    13   1 H        0.924     0.019     2.746     2.591
    14   1 H        0.912    -0.118     6.256     3.912
    15   1 H        0.907    -0.139     7.174     4.190

Wiberg/Mayer (AO) data.
largest (>0.10) Wiberg bond orders for each atom

     #   Z sym  total        # sym  WBO       # sym  WBO       # sym  WBO
 ---------------------------------------------------------------------------
     1   6 C    3.934 --     2 C    0.999    10 H    0.966    11 H    0.965
                             5 O    0.963
     2   6 C    3.957 --     1 C    0.999    12 H    0.979    13 H    0.978
                             3 C    0.903
     3   6 C    3.974 --     4 O    1.240    14 H    0.916     2 C    0.903
                            15 H    0.902
     4   8 O    1.454 --     3 C    1.240
     5   8 O    2.073 --     6 C    1.019     1 C    0.963
     6   6 C    3.970 --     5 O    1.019     9 H    0.981     7 H    0.974
                             8 H    0.974
     7   1 H    1.000 --     6 C    0.974
     8   1 H    1.000 --     6 C    0.974
     9   1 H    0.999 --     6 C    0.981
    10   1 H    0.999 --     1 C    0.966
    11   1 H    1.000 --     1 C    0.965
    12   1 H    1.000 --     2 C    0.979
    13   1 H    1.000 --     2 C    0.978
    14   1 H    0.986 --     3 C    0.916
    15   1 H    0.981 --     3 C    0.902
 ---------------------------------------------------------------------------

molecular dipole:
                 x           y           z       tot (Debye)
 q only:        6.793       2.487       2.956
   full:        6.440       1.926       2.764      18.474

 projected vibrational frequencies (cm⁻¹)
eigval :       -0.00    -0.00    -0.00     0.00     0.00     0.00
eigval :       49.64    73.80    95.12   223.57   270.89   281.87
eigval :      364.40   535.33   741.30   808.63   920.18   998.05
eigval :     1066.34  1090.65  1113.10  1141.34  1163.96  1203.40
eigval :     1230.71  1239.39  1275.26  1297.91  1351.81  1382.29
eigval :     1408.27  1470.09  1476.95  1494.78  1506.08  1510.33
eigval :     2028.53  2300.39  2723.66  2817.24  2822.84  2868.89
eigval :     2953.23  2990.62  2999.85

   temp. (K)  partition function   enthalpy   heat capacity  entropy
                                   cal/mol     cal/K/mol   cal/K/mol   J/K/mol
 298.15  VIB   174.                 3034.044     18.320     19.576
         ROT  0.184E+06              888.752      2.981     27.067
         INT  0.319E+08             3922.796     21.301     46.644
         TR   0.814E+27             1481.254      4.968     39.357
         TOT                        5404.0502    26.2688    86.0002   359.8250

       T/K    H(0)-H(T)+PV         H(T)/Eh          T*S/Eh         G(T)/Eh
   ------------------------------------------------------------------------
    298.15    0.861190E-02    0.130017E+00    0.408615E-01    0.891555E-01
   ------------------------------------------------------------------------

         :::::::::::::::::::::::::::::::::::::::::::::::::::::
         ::                  THERMODYNAMIC                  ::
         :::::::::::::::::::::::::::::::::::::::::::::::::::::
         :: total free energy         -21.335017404765 Eh   ::
         ::.................................................::
         :: total energy              -21.424172924988 Eh   ::
         :: zero point energy           0.121405105941 Eh   ::
         :: G(RRHO) w/o ZPVE           -0.032249585718 Eh   ::
         :: G(RRHO) contrib.            0.089155520223 Eh   ::
         :::::::::::::::::::::::::::::::::::::::::::::::::::::

           -------------------------------------------------
          | TOTAL ENERGY              -21.424172924988 Eh   |
          | TOTAL ENTHALPY            -21.294155916816 Eh   |
          | TOTAL FREE ENERGY         -21.335017404765 Eh   |
          | GRADIENT NORM               0.000893974855 Eh/α |
          | HOMO-LUMO GAP               7.068754620561 eV   |
           -------------------------------------------------

 * finished run on 2025/10/18 at 01:17:07.951
normal termination of xtb
