   * xtb version 6.7.1 (edcfbbe) compiled by 'albert@albert-system' on 2024-07-22

   ID    Z sym.   atoms
    1    6 C      1-3, 6
    2    8 O      4, 5, 16
    3    1 H      7-15, 17, 18

          program call               : xtb tb_lite_results_shiftn0p3_gp263_b0_rot90_complex.xyz --ohess --chrg -1 --alpb water
      * Solvation model:               ALPB
        Solvent                        water
        Solvent mass                       1.8000E+01 g/mol
          :  Hamiltonian                  GFN2-xTB          :
 * total energy  :   -26.6325305 Eh     change       -0.1815792E-09 Eh
 * total energy  :   -26.6406358 Eh     change       -0.8105308E-02 Eh
 * total energy  :   -26.6418081 Eh     change       -0.1172242E-02 Eh
 * total energy  :   -26.6420659 Eh     change       -0.2578219E-03 Eh
 * total energy  :   -26.6422341 Eh     change       -0.1682452E-03 Eh
 * total energy  :   -26.6423053 Eh     change       -0.7119858E-04 Eh
 * total energy  :   -26.6423568 Eh     change       -0.5149455E-04 Eh
 * total energy  :   -26.6423911 Eh     change       -0.3433024E-04 Eh
 * total energy  :   -26.6424055 Eh     change       -0.1438883E-04 Eh
 * total energy  :   -26.6424112 Eh     change       -0.5669657E-05 Eh
 * total energy  :   -26.6424164 Eh     change       -0.5161024E-05 Eh
 * total energy  :   -26.6424247 Eh     change       -0.8324054E-05 Eh
 * total energy  :   -26.6424327 Eh     change       -0.8048880E-05 Eh
 * total energy  :   -26.6424398 Eh     change       -0.7020479E-05 Eh
 * total energy  :   -26.6424445 Eh     change       -0.4759476E-05 Eh
   *** GEOMETRY OPTIMIZATION CONVERGED AFTER 15 ITERATIONS ***

 final structure:
================
18
 xtb: 6.7.1 (edcfbbe)
C           -4.43928667813869       -3.73367547684139       -3.16617072689842
C           -3.45790711488245       -2.68784337716033       -2.66447226340765
C           -4.09567847800390       -1.69074571775924       -1.67044802941557
O           -3.22943024466549       -0.78609711906843       -1.15726805418936
O           -5.39226496310181       -3.13369993968413       -4.01855208274164
C           -6.36242437216202       -4.04936681546838       -4.48630156926838
H           -5.88776130550939       -4.86065376456517       -5.04956145121244
H           -6.92901333874550       -4.47566506660464       -3.65098012421459
H           -7.02401257615182       -3.48040414505220       -5.13395500052695
H           -3.90055129605328       -4.51975793979933       -3.72001816136637
H           -4.94912848452866       -4.20164890229697       -2.30864190846670
H           -2.62667252284364       -3.17623937106591       -2.15292621662803
H           -3.06028686970213       -2.11812815663568       -3.50585757414005
H           -4.93463343811824       -1.17183128992172       -2.19795378594125
H           -4.57989323491159       -2.29545096781468       -0.85344256550782
O           -1.19937830404134       -1.99320967369834       -0.20034505974201
H           -2.03548287086183       -1.51436750275000       -0.57482729964346
H           -0.56958336670754       -1.27805256797290       -0.06489762558723

          :  Hamiltonian                  GFN2-xTB          :
         :: gradient norm              0.000953006148 Eh/a0 ::
         :: HOMO-LUMO gap              9.510692405093 eV    ::
         :: SCC energy               -26.859727264037 Eh    ::
         :: -> dispersion             -0.010250823768 Eh    ::
         :: -> Gsolv                  -0.123409291589 Eh    ::
         :: repulsion energy           0.217282746038 Eh    ::

    * Orbital Energies and Occupations

         #    Occupation            Energy/Eh            Energy/eV
      -------------------------------------------------------------
         1        2.0000           -0.7022091             -19.1081
       ...           ...                  ...                  ...
        11        2.0000           -0.5158725             -14.0376
        12        2.0000           -0.4933372             -13.4244
        13        2.0000           -0.4842960             -13.1784
        14        2.0000           -0.4736992             -12.8900
        15        2.0000           -0.4703775             -12.7996
        16        2.0000           -0.4585861             -12.4788
        17        2.0000           -0.4464052             -12.1473
        18        2.0000           -0.4351114             -11.8400
        19        2.0000           -0.4302411             -11.7075
        20        2.0000           -0.4028086             -10.9610
        21        2.0000           -0.4002577             -10.8916
        22        2.0000           -0.3249925              -8.8435
        23        2.0000           -0.3237539              -8.8098 (HOMO)
        24                          0.0257576               0.7009 (LUMO)
        25                          0.0906506               2.4667
        26                          0.1145033               3.1158
        27                          0.1187443               3.2312
        28                          0.1211300               3.2961
        29                          0.1414850               3.8500
        30                          0.1473375               4.0093
        31                          0.1713347               4.6623
        32                          0.1799846               4.8976
        33                          0.1946481               5.2966
        34                          0.2001134               5.4454
       ...                                ...                  ...
        39                          0.3315963               9.0232
      -------------------------------------------------------------
                  HL-Gap            0.3495114 Eh            9.5107 eV

     #   Z          covCN         q      C6AA      α(0)
     1   6 C        3.702     0.090    19.230     6.270
     2   6 C        3.798    -0.078    21.988     6.677
     3   6 C        3.667     0.164    18.200     6.118
     4   8 O        0.869    -0.826    32.366     7.628
     5   8 O        1.700    -0.364    20.153     6.061
     6   6 C        3.652     0.030    20.381     6.483
     7   1 H        0.924     0.047     2.356     2.400
     8   1 H        0.924     0.040     2.451     2.448
     9   1 H        0.925     0.081     1.967     2.193
    10   1 H        0.923     0.023     2.681     2.561
    11   1 H        0.923     0.011     2.882     2.655
    12   1 H        0.924     0.037     2.490     2.468
    13   1 H        0.924     0.033     2.549     2.497
    14   1 H        0.920    -0.075     4.766     3.414
    15   1 H        0.918    -0.090     5.215     3.571
    16   8 O        1.594    -0.740    28.804     7.243
    17   1 H        0.804     0.292     0.745     1.356
    18   1 H        0.805     0.325     0.651     1.267

Wiberg/Mayer (AO) data.
largest (>0.10) Wiberg bond orders for each atom

     #   Z sym  total        # sym  WBO       # sym  WBO       # sym  WBO
 ---------------------------------------------------------------------------
     1   6 C    3.955 --     2 C    1.006     5 O    0.980    11 H    0.967
                            10 H    0.967
     2   6 C    3.993 --     1 C    1.006    13 H    0.978    12 H    0.975
                             3 C    0.971
     3   6 C    3.984 --     4 O    1.100     2 C    0.971    14 H    0.952
                            15 H    0.944
     4   8 O    1.441 --     3 C    1.100    17 H    0.156
     5   8 O    2.042 --     1 C    0.980     6 C    0.979
     6   6 C    3.934 --     5 O    0.979     9 H    0.978     8 H    0.978
                             7 H    0.977
     7   1 H    0.998 --     6 C    0.977
     8   1 H    0.998 --     6 C    0.978
     9   1 H    0.993 --     6 C    0.978
    10   1 H    0.999 --     1 C    0.967
    11   1 H    1.000 --     1 C    0.967
    12   1 H    0.998 --     2 C    0.975
    13   1 H    0.999 --     2 C    0.978
    14   1 H    0.994 --     3 C    0.952
    15   1 H    0.992 --     3 C    0.944
    16   8 O    1.723 --    18 H    0.893    17 H    0.754
    17   1 H    0.915 --    16 O    0.754     4 O    0.156
    18   1 H    0.894 --    16 O    0.893
 ---------------------------------------------------------------------------

molecular dipole:
                 x           y           z       tot (Debye)
 q only:        5.791       2.173       1.945
   full:        5.617       2.059       1.908      15.961

 projected vibrational frequencies (cm⁻¹)
eigval :       -0.00    -0.00     0.00     0.00     0.00     0.00
eigval :       35.95    45.83    69.15    79.68   102.47   132.74
eigval :      223.73   255.46   300.29   348.65   385.44   550.22
eigval :      642.86   782.00   887.50   917.99  1002.26  1040.43
eigval :     1054.92  1091.39  1096.23  1109.02  1127.75  1165.78
eigval :     1203.11  1237.00  1299.64  1308.49  1344.10  1374.50
eigval :     1385.87  1453.42  1467.07  1475.02  1484.64  1507.06
eigval :     1566.15  2152.16  2464.95  2627.74  2811.33  2851.67
eigval :     2896.72  2919.85  2978.62  2988.03  3033.37  3615.84

   temp. (K)  partition function   enthalpy   heat capacity  entropy
                                   cal/mol     cal/K/mol   cal/K/mol   J/K/mol
 298.15  VIB  0.968E+04             4790.451     25.925     31.895
         ROT  0.413E+06              888.752      2.981     28.678
         INT  0.400E+10             5679.204     28.905     60.572
         TR   0.107E+28             1481.254      4.968     39.905
         TOT                        7160.4575    33.8736   100.4775   420.3979

       T/K    H(0)-H(T)+PV         H(T)/Eh          T*S/Eh         G(T)/Eh
   ------------------------------------------------------------------------
    298.15    0.114109E-01    0.156972E+00    0.477401E-01    0.109232E+00
   ------------------------------------------------------------------------

         :::::::::::::::::::::::::::::::::::::::::::::::::::::
         ::                  THERMODYNAMIC                  ::
         :::::::::::::::::::::::::::::::::::::::::::::::::::::
         :: total free energy         -26.533212328932 Eh   ::
         ::.................................................::
         :: total energy              -26.642444519036 Eh   ::
         :: zero point energy           0.145561378637 Eh   ::
         :: G(RRHO) w/o ZPVE           -0.036329188534 Eh   ::
         :: G(RRHO) contrib.            0.109232190104 Eh   ::
         :::::::::::::::::::::::::::::::::::::::::::::::::::::

           -------------------------------------------------
          | TOTAL ENERGY              -26.642444519036 Eh   |
          | TOTAL ENTHALPY            -26.485472225027 Eh   |
          | TOTAL FREE ENERGY         -26.533212328932 Eh   |
          | GRADIENT NORM               0.000953743165 Eh/α |
          | HOMO-LUMO GAP               9.510690224136 eV   |
           -------------------------------------------------

 * finished run on 2025/10/18 at 01:17:07.409
normal termination of xtb
