   * xtb version 6.7.1 (edcfbbe) compiled by 'albert@albert-system' on 2024-07-22

   ID    Z sym.   atoms
    1    6 C      1-3, 6
    2    8 O      4, 5, 16
    3    1 H      7-15, 17, 18

          program call               : xtb tb_lite_results_shiftn0p2_gp263_b0_rot0_complex.xyz --ohess --chrg -1 --alpb water
      * Solvation model:               ALPB
        Solvent                        water
        Solvent mass                       1.8000E+01 g/mol
          :  Hamiltonian                  GFN2-xTB          :
 * total energy  :   -26.6330743 Eh     change       -0.1495764E-09 Eh
 * total energy  :   -26.6397309 Eh     change       -0.6656580E-02 Eh
 * total energy  :   -26.6409210 Eh     change       -0.1190156E-02 Eh
 * total energy  :   -26.6413992 Eh     change       -0.4781870E-03 Eh
 * total energy  :   -26.6417569 Eh     change       -0.3576383E-03 Eh
 * total energy  :   -26.6418470 Eh     change       -0.9015981E-04 Eh
 * total energy  :   -26.6419039 Eh     change       -0.5689259E-04 Eh
 * total energy  :   -26.6419735 Eh     change       -0.6957310E-04 Eh
 * total energy  :   -26.6419965 Eh     change       -0.2299329E-04 Eh
 * total energy  :   -26.6420170 Eh     change       -0.2054731E-04 Eh
 * total energy  :   -26.6422414 Eh     change       -0.1430875E-04 Eh
 * total energy  :   -26.6422537 Eh     change       -0.1236765E-04 Eh
 * total energy  :   -26.6422629 Eh     change       -0.9193468E-05 Eh
 * total energy  :   -26.6422738 Eh     change       -0.1082506E-04 Eh
 * total energy  :   -26.6422876 Eh     change       -0.1380904E-04 Eh
 * total energy  :   -26.6418844 Eh     change        0.4031790E-03 Eh
 * total energy  :   -26.6423068 Eh     change       -0.4223942E-03 Eh
 * total energy  :   -26.6423165 Eh     change       -0.9719410E-05 Eh
 * total energy  :   -26.6423203 Eh     change       -0.3834757E-05 Eh
   *** GEOMETRY OPTIMIZATION CONVERGED AFTER 30 ITERATIONS ***

 final structure:
================
18
 xtb: 6.7.1 (edcfbbe)
C           -4.43055181064082       -3.76382060191946       -3.20248715688476
C           -3.40828737222700       -2.74782848618330       -2.72074220294517
C           -4.00964340617507       -1.71247022661755       -1.74257689432288
O           -3.10517030459062       -0.85424649631911       -1.21466565144910
O           -5.39231411467282       -3.13473761741009       -4.02368446225841
C           -6.42055928818060       -4.01386016076090       -4.43310820019905
H           -6.00795389301582       -4.85117640849910       -5.00694375714781
H           -6.96383892191808       -4.40600111876989       -3.56601105874819
H           -7.08843226971641       -3.42516828683696       -5.05617489932441
H           -3.92889679023172       -4.56089767754034       -3.77510617517205
H           -4.92801933628346       -4.22227211764388       -2.33286646021345
H           -2.59731831994441       -3.26038738658087       -2.20014793565126
H           -2.98777390727348       -2.20739116890853       -3.57005178406464
H           -4.80775305854100       -1.15097759893273       -2.28803221405099
H           -4.54141287896465       -2.28666978672769       -0.93440098291732
O           -1.35410066477783       -2.19199917848564        0.06032439783938
H           -2.05357261319691       -1.65166982665320       -0.47853310002207
H           -1.13276780078726       -1.61224026771165        0.79556565697637

          :  Hamiltonian                  GFN2-xTB          :
         :: gradient norm              0.000450417199 Eh/a0 ::
         :: HOMO-LUMO gap              9.512767631663 eV    ::
         :: SCC energy               -26.859635714270 Eh    ::
         :: -> dispersion             -0.010239939861 Eh    ::
         :: -> Gsolv                  -0.123282215820 Eh    ::
         :: repulsion energy           0.217315372952 Eh    ::

    * Orbital Energies and Occupations

         #    Occupation            Energy/Eh            Energy/eV
      -------------------------------------------------------------
         1        2.0000           -0.7022486             -19.1092
       ...           ...                  ...                  ...
        11        2.0000           -0.5163176             -14.0497
        12        2.0000           -0.4939367             -13.4407
        13        2.0000           -0.4837654             -13.1639
        14        2.0000           -0.4737712             -12.8920
        15        2.0000           -0.4701203             -12.7926
        16        2.0000           -0.4584626             -12.4754
        17        2.0000           -0.4466333             -12.1535
        18        2.0000           -0.4348902             -11.8340
        19        2.0000           -0.4304582             -11.7134
        20        2.0000           -0.4028196             -10.9613
        21        2.0000           -0.4000956             -10.8872
        22        2.0000           -0.3251156              -8.8468
        23        2.0000           -0.3239768              -8.8159 (HOMO)
        24                          0.0256109               0.6969 (LUMO)
        25                          0.0901682               2.4536
        26                          0.1148247               3.1245
        27                          0.1191247               3.2415
        28                          0.1205256               3.2797
        29                          0.1432332               3.8976
        30                          0.1474088               4.0112
        31                          0.1704940               4.6394
        32                          0.1797402               4.8910
        33                          0.1954133               5.3175
        34                          0.2005171               5.4563
       ...                                ...                  ...
        39                          0.3315891               9.0230
      -------------------------------------------------------------
                  HL-Gap            0.3495878 Eh            9.5128 eV

     #   Z          covCN         q      C6AA      α(0)
     1   6 C        3.703     0.090    19.230     6.270
     2   6 C        3.798    -0.077    21.980     6.675
     3   6 C        3.667     0.163    18.209     6.119
     4   8 O        0.870    -0.825    32.348     7.626
     5   8 O        1.700    -0.364    20.154     6.061
     6   6 C        3.652     0.030    20.376     6.483
     7   1 H        0.924     0.047     2.354     2.400
     8   1 H        0.924     0.040     2.454     2.450
     9   1 H        0.925     0.081     1.968     2.194
    10   1 H        0.923     0.023     2.682     2.561
    11   1 H        0.923     0.012     2.866     2.647
    12   1 H        0.924     0.035     2.511     2.478
    13   1 H        0.924     0.031     2.567     2.506
    14   1 H        0.920    -0.074     4.743     3.406
    15   1 H        0.919    -0.087     5.118     3.538
    16   8 O        1.593    -0.741    28.836     7.247
    17   1 H        0.805     0.292     0.745     1.356
    18   1 H        0.805     0.324     0.653     1.270

Wiberg/Mayer (AO) data.
largest (>0.10) Wiberg bond orders for each atom

     #   Z sym  total        # sym  WBO       # sym  WBO       # sym  WBO
 ---------------------------------------------------------------------------
     1   6 C    3.955 --     2 C    1.006     5 O    0.979    11 H    0.967
                            10 H    0.967
     2   6 C    3.993 --     1 C    1.006    13 H    0.978    12 H    0.975
                             3 C    0.970
     3   6 C    3.984 --     4 O    1.100     2 C    0.970    14 H    0.953
                            15 H    0.945
     4   8 O    1.444 --     3 C    1.100    17 H    0.158
     5   8 O    2.042 --     1 C    0.979     6 C    0.979
     6   6 C    3.934 --     5 O    0.979     9 H    0.978     8 H    0.978
                             7 H    0.977
     7   1 H    0.998 --     6 C    0.977
     8   1 H    0.998 --     6 C    0.978
     9   1 H    0.993 --     6 C    0.978
    10   1 H    0.999 --     1 C    0.967
    11   1 H    1.000 --     1 C    0.967
    12   1 H    0.998 --     2 C    0.975
    13   1 H    0.999 --     2 C    0.978
    14   1 H    0.994 --     3 C    0.953
    15   1 H    0.992 --     3 C    0.945
    16   8 O    1.721 --    18 H    0.894    17 H    0.752
    17   1 H    0.915 --    16 O    0.752     4 O    0.158
    18   1 H    0.895 --    16 O    0.894
 ---------------------------------------------------------------------------

molecular dipole:
                 x           y           z       tot (Debye)
 q only:        5.411       2.272       2.276
   full:        5.189       2.156       2.306      15.438

 projected vibrational frequencies (cm⁻¹)
eigval :       -0.00    -0.00    -0.00     0.00     0.00     0.00
eigval :       38.89    54.31    75.72   102.15   108.81   141.52
eigval :      222.52   253.37   305.94   355.90   381.06   549.17
eigval :      645.68   783.18   887.02   916.11  1016.56  1039.09
eigval :     1053.39  1091.60  1096.14  1109.72  1127.91  1165.62
eigval :     1203.65  1235.92  1300.04  1308.32  1344.18  1374.88
eigval :     1386.19  1453.29  1467.73  1475.21  1484.19  1507.75
eigval :     1562.75  2133.04  2477.29  2635.49  2812.17  2852.96
eigval :     2896.15  2919.30  2978.11  2988.16  3033.18  3620.37

   temp. (K)  partition function   enthalpy   heat capacity  entropy
                                   cal/mol     cal/K/mol   cal/K/mol   J/K/mol
 298.15  VIB  0.535E+04             4717.145     26.233     31.074
         ROT  0.415E+06              888.752      2.981     28.687
         INT  0.222E+10             5605.897     29.214     59.761
         TR   0.107E+28             1481.254      4.968     39.905
         TOT                        7087.1512    34.1824    99.6665   417.0048

       T/K    H(0)-H(T)+PV         H(T)/Eh          T*S/Eh         G(T)/Eh
   ------------------------------------------------------------------------
    298.15    0.112941E-01    0.157032E+00    0.473548E-01    0.109678E+00
   ------------------------------------------------------------------------

         :::::::::::::::::::::::::::::::::::::::::::::::::::::
         ::                  THERMODYNAMIC                  ::
         :::::::::::::::::::::::::::::::::::::::::::::::::::::
         :: total free energy         -26.532642773595 Eh   ::
         ::.................................................::
         :: total energy              -26.642320339807 Eh   ::
         :: zero point energy           0.145738265140 Eh   ::
         :: G(RRHO) w/o ZPVE           -0.036060698928 Eh   ::
         :: G(RRHO) contrib.            0.109677566211 Eh   ::
         :::::::::::::::::::::::::::::::::::::::::::::::::::::

           -------------------------------------------------
          | TOTAL ENERGY              -26.642320339807 Eh   |
          | TOTAL ENTHALPY            -26.485287980283 Eh   |
          | TOTAL FREE ENERGY         -26.532642773595 Eh   |
          | GRADIENT NORM               0.000450594138 Eh/α |
          | HOMO-LUMO GAP               9.512768128386 eV   |
           -------------------------------------------------

 * finished run on 2025/10/18 at 01:17:05.385
normal termination of xtb
