   * xtb version 6.7.1 (edcfbbe) compiled by 'albert@albert-system' on 2024-07-22

   ID    Z sym.   atoms
    1    6 C      1-3, 6
    2    8 O      4, 5, 16
    3    1 H      7-15, 17, 18

          program call               : xtb tb_lite_results_shiftn0p2_gp263_b0_rot90_complex.xyz --ohess --chrg -1 --alpb water
      * Solvation model:               ALPB
        Solvent                        water
        Solvent mass                       1.8000E+01 g/mol
          :  Hamiltonian                  GFN2-xTB          :
 * total energy  :   -26.6337390 Eh     change       -0.1284981E-09 Eh
 * total energy  :   -26.6402846 Eh     change       -0.6545660E-02 Eh
 * total energy  :   -26.6414575 Eh     change       -0.1172933E-02 Eh
 * total energy  :   -26.6419117 Eh     change       -0.4541589E-03 Eh
 * total energy  :   -26.6421987 Eh     change       -0.2870163E-03 Eh
 * total energy  :   -26.6422840 Eh     change       -0.8524606E-04 Eh
 * total energy  :   -26.6423543 Eh     change       -0.7033562E-04 Eh
 * total energy  :   -26.6423885 Eh     change       -0.3422878E-04 Eh
 * total energy  :   -26.6424011 Eh     change       -0.1256691E-04 Eh
 * total energy  :   -26.6424092 Eh     change       -0.8096078E-05 Eh
 * total energy  :   -26.6424153 Eh     change       -0.6084616E-05 Eh
 * total energy  :   -26.6424223 Eh     change       -0.7058629E-05 Eh
 * total energy  :   -26.6424282 Eh     change       -0.5854607E-05 Eh
 * total energy  :   -26.6424357 Eh     change       -0.7536082E-05 Eh
 * total energy  :   -26.6424439 Eh     change       -0.8216420E-05 Eh
 * total energy  :   -26.6424484 Eh     change       -0.4433270E-05 Eh
   *** GEOMETRY OPTIMIZATION CONVERGED AFTER 16 ITERATIONS ***

 final structure:
================
18
 xtb: 6.7.1 (edcfbbe)
C           -4.42780999075477       -3.73506224930658       -3.17244801462609
C           -3.44134965440495       -2.69402524560994       -2.67058211368333
C           -4.06976766862473       -1.70564590118620       -1.66219461170726
O           -3.19722934883920       -0.80816950599839       -1.14627931055172
O           -5.38952055530907       -3.12717060072713       -4.00951523274931
C           -6.36680952674475       -4.03754792879220       -4.47199286147335
H           -5.90070378377589       -4.84621952704338       -5.04618739461479
H           -6.92478352803977       -4.46836844718520       -3.63305166293221
H           -7.03479871163995       -3.46301716677615       -5.10814686466374
H           -3.89460892867154       -4.51563388692772       -3.73924361920488
H           -4.92903654250008       -4.21131028622827       -2.31439690167540
H           -2.60583283560310       -3.18733680603261       -2.17083761099156
H           -3.05094956978267       -2.11715986912474       -3.51050915986158
H           -4.91082738911348       -1.17921658901020       -2.17820783746648
H           -4.54913544017375       -2.31734162081936       -0.84766423259171
O           -1.16813945020502       -2.02434595484059       -0.19991052076729
H           -2.00372357282363       -1.54227971909112       -0.57360353663499
H           -0.55973196771633       -1.30569333134397       -0.00314117081803

          :  Hamiltonian                  GFN2-xTB          :
         :: gradient norm              0.000468472596 Eh/a0 ::
         :: HOMO-LUMO gap              9.514104820555 eV    ::
         :: SCC energy               -26.859742567957 Eh    ::
         :: -> dispersion             -0.010244808483 Eh    ::
         :: -> Gsolv                  -0.123361455599 Eh    ::
         :: repulsion energy           0.217294187169 Eh    ::

    * Orbital Energies and Occupations

         #    Occupation            Energy/Eh            Energy/eV
      -------------------------------------------------------------
         1        2.0000           -0.7022178             -19.1083
       ...           ...                  ...                  ...
        11        2.0000           -0.5158432             -14.0368
        12        2.0000           -0.4933521             -13.4248
        13        2.0000           -0.4842681             -13.1776
        14        2.0000           -0.4736780             -12.8894
        15        2.0000           -0.4703457             -12.7988
        16        2.0000           -0.4585614             -12.4781
        17        2.0000           -0.4463796             -12.1466
        18        2.0000           -0.4350815             -11.8392
        19        2.0000           -0.4302277             -11.7071
        20        2.0000           -0.4028020             -10.9608
        21        2.0000           -0.4001461             -10.8885
        22        2.0000           -0.3250307              -8.8445
        23        2.0000           -0.3238080              -8.8113 (HOMO)
        24                          0.0258289               0.7028 (LUMO)
        25                          0.0906571               2.4669
        26                          0.1145084               3.1159
        27                          0.1187658               3.2318
        28                          0.1210800               3.2948
        29                          0.1415717               3.8524
        30                          0.1473087               4.0085
        31                          0.1713708               4.6632
        32                          0.1801782               4.9029
        33                          0.1946364               5.2963
        34                          0.1999928               5.4421
       ...                                ...                  ...
        39                          0.3314238               9.0185
      -------------------------------------------------------------
                  HL-Gap            0.3496370 Eh            9.5141 eV

     #   Z          covCN         q      C6AA      α(0)
     1   6 C        3.702     0.090    19.231     6.270
     2   6 C        3.798    -0.078    21.987     6.676
     3   6 C        3.667     0.163    18.203     6.118
     4   8 O        0.869    -0.825    32.359     7.627
     5   8 O        1.700    -0.364    20.152     6.061
     6   6 C        3.652     0.030    20.379     6.483
     7   1 H        0.924     0.047     2.357     2.401
     8   1 H        0.924     0.040     2.453     2.449
     9   1 H        0.925     0.081     1.967     2.193
    10   1 H        0.923     0.024     2.681     2.560
    11   1 H        0.923     0.011     2.880     2.654
    12   1 H        0.924     0.037     2.492     2.469
    13   1 H        0.924     0.033     2.549     2.497
    14   1 H        0.920    -0.075     4.755     3.410
    15   1 H        0.918    -0.089     5.202     3.567
    16   8 O        1.594    -0.740    28.817     7.245
    17   1 H        0.804     0.292     0.745     1.356
    18   1 H        0.805     0.325     0.651     1.268

Wiberg/Mayer (AO) data.
largest (>0.10) Wiberg bond orders for each atom

     #   Z sym  total        # sym  WBO       # sym  WBO       # sym  WBO
 ---------------------------------------------------------------------------
     1   6 C    3.955 --     2 C    1.006     5 O    0.979    11 H    0.967
                            10 H    0.967
     2   6 C    3.993 --     1 C    1.006    13 H    0.978    12 H    0.975
                             3 C    0.971
     3   6 C    3.984 --     4 O    1.100     2 C    0.971    14 H    0.952
                            15 H    0.945
     4   8 O    1.442 --     3 C    1.100    17 H    0.157
     5   8 O    2.042 --     1 C    0.979     6 C    0.979
     6   6 C    3.934 --     5 O    0.979     9 H    0.978     8 H    0.978
                             7 H    0.977
     7   1 H    0.998 --     6 C    0.977
     8   1 H    0.998 --     6 C    0.978
     9   1 H    0.993 --     6 C    0.978
    10   1 H    0.999 --     1 C    0.967
    11   1 H    1.000 --     1 C    0.967
    12   1 H    0.998 --     2 C    0.975
    13   1 H    0.999 --     2 C    0.978
    14   1 H    0.994 --     3 C    0.952
    15   1 H    0.992 --     3 C    0.945
    16   8 O    1.722 --    18 H    0.894    17 H    0.753
    17   1 H    0.915 --    16 O    0.753     4 O    0.157
    18   1 H    0.895 --    16 O    0.894
 ---------------------------------------------------------------------------

molecular dipole:
                 x           y           z       tot (Debye)
 q only:        5.713       2.219       1.960
   full:        5.537       2.107       1.932      15.839

 projected vibrational frequencies (cm⁻¹)
eigval :       -0.00    -0.00    -0.00     0.00     0.00     0.00
eigval :       34.49    58.32    77.35    92.26   101.57   128.78
eigval :      223.93   255.17   300.02   349.71   385.42   550.16
eigval :      650.89   781.23   887.55   917.23  1000.26  1040.48
eigval :     1054.97  1090.94  1096.04  1108.89  1128.16  1165.77
eigval :     1203.11  1236.78  1298.68  1308.45  1344.16  1373.42
eigval :     1386.24  1453.52  1467.06  1475.81  1484.56  1505.81
eigval :     1569.45  2141.87  2466.41  2627.58  2811.56  2851.90
eigval :     2895.79  2919.05  2978.41  2987.87  3032.75  3624.12

   temp. (K)  partition function   enthalpy   heat capacity  entropy
                                   cal/mol     cal/K/mol   cal/K/mol   J/K/mol
 298.15  VIB  0.676E+04             4753.384     26.221     31.516
         ROT  0.413E+06              888.752      2.981     28.678
         INT  0.279E+10             5642.136     29.202     60.194
         TR   0.107E+28             1481.254      4.968     39.905
         TOT                        7123.3899    34.1705   100.0995   418.8162

       T/K    H(0)-H(T)+PV         H(T)/Eh          T*S/Eh         G(T)/Eh
   ------------------------------------------------------------------------
    298.15    0.113518E-01    0.156981E+00    0.475605E-01    0.109421E+00
   ------------------------------------------------------------------------

         :::::::::::::::::::::::::::::::::::::::::::::::::::::
         ::                  THERMODYNAMIC                  ::
         :::::::::::::::::::::::::::::::::::::::::::::::::::::
         :: total free energy         -26.533027600850 Eh   ::
         ::.................................................::
         :: total energy              -26.642448381349 Eh   ::
         :: zero point energy           0.145629430979 Eh   ::
         :: G(RRHO) w/o ZPVE           -0.036208650481 Eh   ::
         :: G(RRHO) contrib.            0.109420780499 Eh   ::
         :::::::::::::::::::::::::::::::::::::::::::::::::::::

           -------------------------------------------------
          | TOTAL ENERGY              -26.642448381349 Eh   |
          | TOTAL ENTHALPY            -26.485467105948 Eh   |
          | TOTAL FREE ENERGY         -26.533027600850 Eh   |
          | GRADIENT NORM               0.000468645645 Eh/α |
          | HOMO-LUMO GAP               9.514106042928 eV   |
           -------------------------------------------------

 * finished run on 2025/10/18 at 01:16:59.746
normal termination of xtb
