   * xtb version 6.7.1 (edcfbbe) compiled by 'albert@albert-system' on 2024-07-22

   ID    Z sym.   atoms
    1    6 C      1-3, 6
    2    8 O      4, 5, 16
    3    1 H      7-15, 17, 18

          program call               : xtb tb_lite_results_shiftn0p25_gp263_b0_rot90_complex.xyz --ohess --chrg -1 --alpb water
      * Solvation model:               ALPB
        Solvent                        water
        Solvent mass                       1.8000E+01 g/mol
          :  Hamiltonian                  GFN2-xTB          :
 * total energy  :   -26.6333458 Eh     change       -0.1523155E-09 Eh
 * total energy  :   -26.6405093 Eh     change       -0.7163518E-02 Eh
 * total energy  :   -26.6416386 Eh     change       -0.1129306E-02 Eh
 * total energy  :   -26.6419780 Eh     change       -0.3394270E-03 Eh
 * total energy  :   -26.6422169 Eh     change       -0.2388409E-03 Eh
 * total energy  :   -26.6422976 Eh     change       -0.8078087E-04 Eh
 * total energy  :   -26.6423561 Eh     change       -0.5850013E-04 Eh
 * total energy  :   -26.6423919 Eh     change       -0.3578331E-04 Eh
 * total energy  :   -26.6424042 Eh     change       -0.1225284E-04 Eh
 * total energy  :   -26.6424096 Eh     change       -0.5458508E-05 Eh
 * total energy  :   -26.6424170 Eh     change       -0.7365450E-05 Eh
 * total energy  :   -26.6424234 Eh     change       -0.6362233E-05 Eh
 * total energy  :   -26.6424308 Eh     change       -0.7405788E-05 Eh
 * total energy  :   -26.6424381 Eh     change       -0.7338367E-05 Eh
 * total energy  :   -26.6424433 Eh     change       -0.5174218E-05 Eh
 * total energy  :   -26.6424452 Eh     change       -0.1954776E-05 Eh
   *** GEOMETRY OPTIMIZATION CONVERGED AFTER 16 ITERATIONS ***

 final structure:
================
18
 xtb: 6.7.1 (edcfbbe)
C           -4.42873340954464       -3.73125111493340       -3.16942713173016
C           -3.45154882660360       -2.68310290032120       -2.66477118488530
C           -4.09004467395933       -1.69700041173528       -1.66039681492787
O           -3.22409193736107       -0.79624655641460       -1.13944588835598
O           -5.39186603032457       -3.13127553263546       -4.01042039809622
C           -6.36040654538497       -4.04919197645958       -4.47588617689654
H           -5.88622987074867       -4.85468489859758       -5.04796981262926
H           -6.91812977562262       -4.48383201779551       -3.63881399589585
H           -7.03046058212561       -3.48023241900802       -5.11477635025364
H           -3.88788039109253       -4.50840855611325       -3.73369565429540
H           -4.92952621015998       -4.21059023165621       -2.31288609759738
H           -2.61546706386050       -3.17065788236224       -2.16032761132968
H           -3.06072051524012       -2.10510374727611       -3.50373849337073
H           -4.93011194628682       -1.17386657083450       -2.18154183150884
H           -4.57175497886494       -2.31066043782039       -0.84873377250112
O           -1.19134899039032       -2.01042153589533       -0.19848981555212
H           -2.03000781670119       -1.52819259907349       -0.56513833174393
H           -0.55074439765471       -1.30147182616968       -0.09080671638576

          :  Hamiltonian                  GFN2-xTB          :
         :: gradient norm              0.000633070307 Eh/a0 ::
         :: HOMO-LUMO gap              9.517849347837 eV    ::
         :: SCC energy               -26.859838834494 Eh    ::
         :: -> dispersion             -0.010251502130 Eh    ::
         :: -> Gsolv                  -0.123338818292 Eh    ::
         :: repulsion energy           0.217393595127 Eh    ::

    * Orbital Energies and Occupations

         #    Occupation            Energy/Eh            Energy/eV
      -------------------------------------------------------------
         1        2.0000           -0.7022500             -19.1092
       ...           ...                  ...                  ...
        11        2.0000           -0.5158655             -14.0374
        12        2.0000           -0.4934024             -13.4262
        13        2.0000           -0.4842253             -13.1764
        14        2.0000           -0.4736303             -12.8881
        15        2.0000           -0.4704028             -12.8003
        16        2.0000           -0.4586054             -12.4793
        17        2.0000           -0.4464016             -12.1472
        18        2.0000           -0.4351219             -11.8403
        19        2.0000           -0.4302542             -11.7078
        20        2.0000           -0.4028016             -10.9608
        21        2.0000           -0.4001434             -10.8885
        22        2.0000           -0.3250575              -8.8453
        23        2.0000           -0.3238337              -8.8120 (HOMO)
        24                          0.0259408               0.7059 (LUMO)
        25                          0.0906705               2.4673
        26                          0.1146502               3.1198
        27                          0.1189147               3.2358
        28                          0.1212381               3.2991
        29                          0.1416680               3.8550
        30                          0.1473514               4.0096
        31                          0.1714919               4.6665
        32                          0.1801814               4.9030
        33                          0.1947418               5.2992
        34                          0.1999928               5.4421
       ...                                ...                  ...
        39                          0.3315334               9.0215
      -------------------------------------------------------------
                  HL-Gap            0.3497745 Eh            9.5178 eV

     #   Z          covCN         q      C6AA      α(0)
     1   6 C        3.703     0.090    19.231     6.270
     2   6 C        3.798    -0.078    21.989     6.677
     3   6 C        3.667     0.163    18.202     6.118
     4   8 O        0.869    -0.825    32.358     7.627
     5   8 O        1.700    -0.364    20.151     6.061
     6   6 C        3.652     0.030    20.378     6.483
     7   1 H        0.924     0.047     2.358     2.401
     8   1 H        0.924     0.040     2.453     2.450
     9   1 H        0.925     0.081     1.967     2.193
    10   1 H        0.923     0.024     2.681     2.561
    11   1 H        0.923     0.011     2.881     2.655
    12   1 H        0.924     0.037     2.487     2.466
    13   1 H        0.924     0.033     2.549     2.497
    14   1 H        0.920    -0.075     4.760     3.412
    15   1 H        0.918    -0.089     5.208     3.569
    16   8 O        1.594    -0.740    28.818     7.245
    17   1 H        0.804     0.292     0.745     1.356
    18   1 H        0.805     0.325     0.651     1.267

Wiberg/Mayer (AO) data.
largest (>0.10) Wiberg bond orders for each atom

     #   Z sym  total        # sym  WBO       # sym  WBO       # sym  WBO
 ---------------------------------------------------------------------------
     1   6 C    3.955 --     2 C    1.006     5 O    0.979    11 H    0.967
                            10 H    0.967
     2   6 C    3.993 --     1 C    1.006    13 H    0.978    12 H    0.974
                             3 C    0.971
     3   6 C    3.984 --     4 O    1.100     2 C    0.971    14 H    0.952
                            15 H    0.945
     4   8 O    1.442 --     3 C    1.100    17 H    0.157
     5   8 O    2.042 --     1 C    0.979     6 C    0.979
     6   6 C    3.934 --     5 O    0.979     9 H    0.978     8 H    0.978
                             7 H    0.977
     7   1 H    0.998 --     6 C    0.977
     8   1 H    0.998 --     6 C    0.978
     9   1 H    0.993 --     6 C    0.978
    10   1 H    0.999 --     1 C    0.967
    11   1 H    1.000 --     1 C    0.967
    12   1 H    0.998 --     2 C    0.974
    13   1 H    0.999 --     2 C    0.978
    14   1 H    0.994 --     3 C    0.952
    15   1 H    0.992 --     3 C    0.945
    16   8 O    1.723 --    18 H    0.894    17 H    0.753
    17   1 H    0.915 --    16 O    0.753     4 O    0.157
    18   1 H    0.895 --    16 O    0.894
 ---------------------------------------------------------------------------

molecular dipole:
                 x           y           z       tot (Debye)
 q only:        5.786       2.192       1.900
   full:        5.615       2.077       1.858      15.934

 projected vibrational frequencies (cm⁻¹)
eigval :       -0.00     0.00     0.00     0.00     0.00     0.00
eigval :      -80.94    33.97    59.36    78.30    93.52   129.15
eigval :      223.10   254.81   299.98   348.92   385.63   550.25
eigval :      638.15   781.55   887.43   917.45  1003.78  1040.66
eigval :     1055.35  1091.10  1096.31  1109.25  1128.04  1165.85
eigval :     1203.24  1237.13  1298.87  1308.54  1344.23  1373.53
eigval :     1386.30  1453.53  1466.99  1475.73  1484.64  1505.91
eigval :     1565.88  2140.74  2466.39  2626.94  2811.48  2851.96
eigval :     2895.86  2919.21  2978.28  2987.67  3033.33  3630.11

   temp. (K)  partition function   enthalpy   heat capacity  entropy
                                   cal/mol     cal/K/mol   cal/K/mol   J/K/mol
 298.15  VIB  0.257E+04             4295.342     24.365     28.100
         ROT  0.413E+06              888.752      2.981     28.678
         INT  0.106E+10             5184.094     27.346     56.778
         TR   0.107E+28             1481.254      4.968     39.905
         TOT                        6665.3481    32.3138    96.6832   404.5226

       T/K    H(0)-H(T)+PV         H(T)/Eh          T*S/Eh         G(T)/Eh
   ------------------------------------------------------------------------
    298.15    0.106219E-01    0.156011E+00    0.459373E-01    0.110074E+00
   ------------------------------------------------------------------------

         :::::::::::::::::::::::::::::::::::::::::::::::::::::
         ::                  THERMODYNAMIC                  ::
         :::::::::::::::::::::::::::::::::::::::::::::::::::::
         :: total free energy         -26.532371595972 Eh   ::
         ::.................................................::
         :: total energy              -26.642445240477 Eh   ::
         :: zero point energy           0.145389054565 Eh   ::
         :: G(RRHO) w/o ZPVE           -0.035315410061 Eh   ::
         :: G(RRHO) contrib.            0.110073644505 Eh   ::
         :::::::::::::::::::::::::::::::::::::::::::::::::::::

           -------------------------------------------------
          | TOTAL ENERGY              -26.642445240477 Eh   |
          | TOTAL ENTHALPY            -26.486434277612 Eh   |
          | TOTAL FREE ENERGY         -26.532371595972 Eh   |
          | GRADIENT NORM               0.000632872127 Eh/α |
          | HOMO-LUMO GAP               9.517848217308 eV   |
           -------------------------------------------------

 * finished run on 2025/10/18 at 01:16:57.259
normal termination of xtb
