   * xtb version 6.7.1 (edcfbbe) compiled by 'albert@albert-system' on 2024-07-22

   ID    Z sym.   atoms
    1    6 C      1-6
    2    8 O      7, 13, 16
    3    1 H      8-10, 12, 15, 17, 18
    4    7 N      11, 14

          program call               : xtb tb_lite_results_shiftn0p15_gp769_b0_rot180_complex.xyz --ohess --chrg -1 --alpb water
      * Solvation model:               ALPB
        Solvent                        water
        Solvent mass                       1.8000E+01 g/mol
          :  Hamiltonian                  GFN2-xTB          :
 * total energy  :   -34.6689666 Eh     change       -0.8283578E-09 Eh
 * total energy  :   -34.6733377 Eh     change       -0.4371123E-02 Eh
 * total energy  :   -34.6739069 Eh     change       -0.5691722E-03 Eh
 * total energy  :   -34.6739788 Eh     change       -0.7187312E-04 Eh
 * total energy  :   -34.6740247 Eh     change       -0.4598412E-04 Eh
 * total energy  :   -34.6740420 Eh     change       -0.1726257E-04 Eh
 * total energy  :   -34.6740813 Eh     change       -0.3927204E-04 Eh
 * total energy  :   -34.6741321 Eh     change       -0.5077352E-04 Eh
 * total energy  :   -34.6741466 Eh     change       -0.1452607E-04 Eh
 * total energy  :   -34.6742064 Eh     change       -0.5978272E-04 Eh
 * total energy  :   -34.6750617 Eh     change        0.2015630E-04 Eh
 * total energy  :   -34.6751088 Eh     change       -0.4713243E-04 Eh
 * total energy  :   -34.6751188 Eh     change       -0.9928810E-05 Eh
 * total energy  :   -34.6751339 Eh     change       -0.1516085E-04 Eh
 * total energy  :   -34.6750881 Eh     change        0.4584787E-04 Eh
 * total energy  :   -34.6751446 Eh     change       -0.5650964E-04 Eh
 * total energy  :   -34.6751484 Eh     change       -0.3800395E-05 Eh
 * total energy  :   -34.6751511 Eh     change       -0.2765950E-05 Eh
 * total energy  :   -34.6751533 Eh     change       -0.2166539E-05 Eh
   *** GEOMETRY OPTIMIZATION CONVERGED AFTER 41 ITERATIONS ***

 final structure:
================
18
 xtb: 6.7.1 (edcfbbe)
C           -2.03071086179859       -2.85417995649254        1.61216573511607
C           -2.47510215247228       -2.19861203010948        0.41059041324983
C           -3.63762165583328       -2.53512343168105       -0.19054816988484
C           -4.46597415812372       -3.55465951520059        0.34749459435040
C           -4.04960531866005       -4.22507121641358        1.52446690908027
C           -2.88639694882954       -3.89322217955646        2.12850318218128
O           -6.36464042069422       -4.79345274901597        0.23191566245680
H           -2.57153947759068       -4.40799591424470        3.02693301756969
H           -1.83792697985650       -1.42940744452288        0.00321732100493
H           -3.97334525604955       -2.04526594607758       -1.09265159466082
N           -5.63616230738994       -3.88541013200735       -0.25362159012398
H           -4.69314314895438       -5.00167124854797        1.91251488117812
O           -6.00476677774361       -3.28664498653584       -1.29958149750123
N           -0.91100643153195       -2.48091549220815        2.15817200080746
H           -0.68885821920054       -3.01239526569815        2.99717766332512
O            0.60897246637708       -0.52654357706963        0.93050554458557
H            0.11311243571400       -1.27215757551376        1.34040490165910
H            0.59752294247671        0.17788978823961        1.58476851124551

          :  Hamiltonian                  GFN2-xTB          :
         :: gradient norm              0.000869795955 Eh/a0 ::
         :: HOMO-LUMO gap              1.758454293778 eV    ::
         :: SCC energy               -35.065004648714 Eh    ::
         :: -> dispersion             -0.015273682247 Eh    ::
         :: -> Gsolv                  -0.094608490413 Eh    ::
         :: repulsion energy           0.389851339755 Eh    ::

    * Orbital Energies and Occupations

         #    Occupation            Energy/Eh            Energy/eV
      -------------------------------------------------------------
         1        2.0000           -0.7201684             -19.5968
       ...           ...                  ...                  ...
        18        2.0000           -0.4805243             -13.0757
        19        2.0000           -0.4771971             -12.9852
        20        2.0000           -0.4757535             -12.9459
        21        2.0000           -0.4485685             -12.2062
        22        2.0000           -0.4337814             -11.8038
        23        2.0000           -0.4325297             -11.7697
        24        2.0000           -0.4221949             -11.4885
        25        2.0000           -0.4123878             -11.2216
        26        2.0000           -0.4107568             -11.1773
        27        2.0000           -0.4101505             -11.1608
        28        2.0000           -0.4078289             -11.0976
        29        2.0000           -0.3654746              -9.9451
        30        2.0000           -0.3496510              -9.5145 (HOMO)
        31                         -0.2850291              -7.7560 (LUMO)
        32                         -0.2141877              -5.8283
        33                         -0.1803860              -4.9086
        34                         -0.0783670              -2.1325
        35                          0.0409746               1.1150
        36                          0.0921049               2.5063
        37                          0.1274090               3.4670
        38                          0.1390280               3.7831
        39                          0.1596720               4.3449
        40                          0.1737605               4.7283
        41                          0.1977775               5.3818
       ...                                ...                  ...
        51                          0.6986624              19.0116
      -------------------------------------------------------------
                  HL-Gap            0.0646219 Eh            1.7585 eV

     #   Z          covCN         q      C6AA      α(0)
     1   6 C        2.889     0.109    25.583     8.292
     2   6 C        2.920    -0.063    29.559     8.916
     3   6 C        2.911    -0.033    28.813     8.802
     4   6 C        2.911    -0.014    28.355     8.732
     5   6 C        2.910    -0.031    28.784     8.797
     6   6 C        2.914    -0.071    29.772     8.947
     7   8 O        0.929    -0.576    25.484     6.770
     8   1 H        0.925     0.028     2.615     2.529
     9   1 H        0.926     0.057     2.234     2.337
    10   1 H        0.926     0.043     2.412     2.429
    11   7 N        2.765     0.446    14.648     5.684
    12   1 H        0.926     0.039     2.461     2.453
    13   8 O        0.929    -0.573    25.419     6.761
    14   7 N        1.785    -0.448    32.738     8.474
    15   1 H        0.860     0.133     1.522     1.933
    16   8 O        1.607    -0.703    27.792     7.115
    17   1 H        0.803     0.311     0.688     1.303
    18   1 H        0.805     0.344     0.602     1.219

Wiberg/Mayer (AO) data.
largest (>0.10) Wiberg bond orders for each atom

     #   Z sym  total        # sym  WBO       # sym  WBO       # sym  WBO
 ---------------------------------------------------------------------------
     1   6 C    3.979 --    14 N    1.596     2 C    1.152     6 C    1.146
     2   6 C    3.988 --     3 C    1.666     1 C    1.152     9 H    0.965
     3   6 C    3.990 --     2 C    1.666     4 C    1.212    10 H    0.965
     4   6 C    3.939 --     5 C    1.220     3 C    1.212    11 N    1.197
                            13 O    0.106     7 O    0.106
     5   6 C    3.990 --     6 C    1.657     4 C    1.220    12 H    0.965
     6   6 C    3.986 --     5 C    1.657     1 C    1.146     8 H    0.967
     7   8 O    1.664 --    11 N    1.261    13 O    0.202     4 C    0.106
     8   1 H    0.999 --     6 C    0.967
     9   1 H    0.996 --     2 C    0.965
    10   1 H    0.997 --     3 C    0.965
    11   7 N    3.819 --    13 O    1.264     7 O    1.261     4 C    1.197
    12   1 H    0.998 --     5 C    0.965
    13   8 O    1.669 --    11 N    1.264     7 O    0.202     4 C    0.106
    14   7 N    2.847 --     1 C    1.596    15 H    0.955
    15   1 H    0.982 --    14 N    0.955
    16   8 O    1.754 --    18 H    0.881    17 H    0.837
    17   1 H    0.903 --    16 O    0.837
    18   1 H    0.882 --    16 O    0.881
 ---------------------------------------------------------------------------

molecular dipole:
                 x           y           z       tot (Debye)
 q only:        8.754       6.675       0.574
   full:        8.347       6.333       0.855      26.720

 projected vibrational frequencies (cm⁻¹)
eigval :       -0.00    -0.00     0.00     0.00     0.00     0.00
eigval :       37.87    47.84    86.66   103.36   145.57   162.78
eigval :      225.63   241.44   355.37   373.45   399.55   418.61
eigval :      431.24   543.53   602.36   612.21   639.88   648.46
eigval :      687.78   734.76   771.14   820.18   841.67   852.93
eigval :      918.24   926.03   969.38  1100.62  1126.90  1164.00
eigval :     1183.16  1275.28  1337.31  1367.83  1395.97  1398.42
eigval :     1474.84  1505.61  1544.79  1560.66  1619.41  3048.49
eigval :     3076.67  3080.90  3084.47  3104.60  3341.04  3625.57

   temp. (K)  partition function   enthalpy   heat capacity  entropy
                                   cal/mol     cal/K/mol   cal/K/mol   J/K/mol
 298.15  VIB  0.628E+04             5419.000     33.626     33.566
         ROT  0.111E+07              888.752      2.981     30.644
         INT  0.697E+10             6307.752     36.607     64.210
         TR   0.187E+28             1481.254      4.968     41.008
         TOT                        7789.0062    41.5753   105.2181   440.2324

       T/K    H(0)-H(T)+PV         H(T)/Eh          T*S/Eh         G(T)/Eh
   ------------------------------------------------------------------------
    298.15    0.124126E-01    0.137745E+00    0.499925E-01    0.877523E-01
   ------------------------------------------------------------------------

         :::::::::::::::::::::::::::::::::::::::::::::::::::::
         ::                  THERMODYNAMIC                  ::
         :::::::::::::::::::::::::::::::::::::::::::::::::::::
         :: total free energy         -34.587401025580 Eh   ::
         ::.................................................::
         :: total energy              -34.675153309187 Eh   ::
         :: zero point energy           0.125332209655 Eh   ::
         :: G(RRHO) w/o ZPVE           -0.037579926048 Eh   ::
         :: G(RRHO) contrib.            0.087752283607 Eh   ::
         :::::::::::::::::::::::::::::::::::::::::::::::::::::

           -------------------------------------------------
          | TOTAL ENERGY              -34.675153309187 Eh   |
          | TOTAL ENTHALPY            -34.537408527988 Eh   |
          | TOTAL FREE ENERGY         -34.587401025580 Eh   |
          | GRADIENT NORM               0.000870226119 Eh/α |
          | HOMO-LUMO GAP               1.758451131998 eV   |
           -------------------------------------------------

 * finished run on 2025/10/18 at 05:16:09.631
normal termination of xtb
