   * xtb version 6.7.1 (edcfbbe) compiled by 'albert@albert-system' on 2024-07-22

   ID    Z sym.   atoms
    1    6 C      1-6
    2    8 O      7, 13, 16
    3    1 H      8-10, 12, 15, 17, 18
    4    7 N      11, 14

          program call               : xtb tb_lite_results_shiftn0p05_gp769_b0_rot180_complex.xyz --ohess --chrg -1 --alpb water
      * Solvation model:               ALPB
        Solvent                        water
        Solvent mass                       1.8000E+01 g/mol
          :  Hamiltonian                  GFN2-xTB          :
 * total energy  :   -34.6694596 Eh     change       -0.7631442E-09 Eh
 * total energy  :   -34.6733365 Eh     change       -0.3876842E-02 Eh
 * total energy  :   -34.6738989 Eh     change       -0.5624183E-03 Eh
 * total energy  :   -34.6739772 Eh     change       -0.7837204E-04 Eh
 * total energy  :   -34.6740271 Eh     change       -0.4988591E-04 Eh
 * total energy  :   -34.6740454 Eh     change       -0.1822149E-04 Eh
 * total energy  :   -34.6740755 Eh     change       -0.3010943E-04 Eh
 * total energy  :   -34.6741299 Eh     change       -0.5443849E-04 Eh
 * total energy  :   -34.6741845 Eh     change       -0.5461065E-04 Eh
 * total energy  :   -34.6741449 Eh     change        0.3956693E-04 Eh
 * total energy  :   -34.6750844 Eh     change       -0.3251940E-04 Eh
 * total energy  :   -34.6750927 Eh     change       -0.8371875E-05 Eh
 * total energy  :   -34.6751038 Eh     change       -0.1103699E-04 Eh
 * total energy  :   -34.6751256 Eh     change       -0.2185345E-04 Eh
 * total energy  :   -34.6751324 Eh     change       -0.6742972E-05 Eh
 * total energy  :   -34.6751381 Eh     change       -0.5766265E-05 Eh
 * total energy  :   -34.6751434 Eh     change       -0.5226222E-05 Eh
 * total energy  :   -34.6751480 Eh     change       -0.4630844E-05 Eh
 * total energy  :   -34.6751512 Eh     change       -0.3248047E-05 Eh
   *** GEOMETRY OPTIMIZATION CONVERGED AFTER 40 ITERATIONS ***

 final structure:
================
18
 xtb: 6.7.1 (edcfbbe)
C           -2.02246176018528       -2.83971434347728        1.59546673901184
C           -2.48648526396659       -2.16685716781187        0.41085869831968
C           -3.64933331459977       -2.50802718956488       -0.18711318772445
C           -4.45902548304198       -3.54922578438683        0.33836171397957
C           -4.02389611347179       -4.23529476484101        1.49933268674627
C           -2.86002303693176       -3.89897333049649        2.09983493503353
O           -6.34076436951594       -4.81247975533347        0.21538448400573
H           -2.53111853682722       -4.42612262109129        2.98596807725471
H           -1.86355645230156       -1.38064373055417        0.01387550021644
H           -3.99951691794089       -2.00548561075295       -1.07673383086162
N           -5.62892289424382       -3.88598762110633       -0.25997106940649
H           -4.65380785507777       -5.02738819875689        1.87858968496248
O           -6.01380528762899       -3.27493271617609       -1.29276123793405
N           -0.90197393950744       -2.46330489495067        2.13765338435214
H           -0.66495287685514       -3.00781717714664        2.96419159922451
O            0.63472492381759       -0.48696431510922        0.97247932688744
H            0.12230769972684       -1.23674744134955        1.35491826811717
H            0.64254552290655        0.18825410476437        1.65730452589958

          :  Hamiltonian                  GFN2-xTB          :
         :: gradient norm              0.000731880162 Eh/a0 ::
         :: HOMO-LUMO gap              1.758852968437 eV    ::
         :: SCC energy               -35.064796045722 Eh    ::
         :: -> dispersion             -0.015254836101 Eh    ::
         :: -> Gsolv                  -0.094522676457 Eh    ::
         :: repulsion energy           0.389644810944 Eh    ::

    * Orbital Energies and Occupations

         #    Occupation            Energy/Eh            Energy/eV
      -------------------------------------------------------------
         1        2.0000           -0.7202409             -19.5988
       ...           ...                  ...                  ...
        18        2.0000           -0.4806221             -13.0784
        19        2.0000           -0.4772601             -12.9869
        20        2.0000           -0.4759607             -12.9516
        21        2.0000           -0.4486697             -12.2089
        22        2.0000           -0.4338580             -11.8059
        23        2.0000           -0.4325893             -11.7714
        24        2.0000           -0.4222355             -11.4896
        25        2.0000           -0.4123795             -11.2214
        26        2.0000           -0.4108306             -11.1793
        27        2.0000           -0.4102193             -11.1626
        28        2.0000           -0.4079187             -11.1000
        29        2.0000           -0.3655370              -9.9468
        30        2.0000           -0.3497358              -9.5168 (HOMO)
        31                         -0.2850992              -7.7579 (LUMO)
        32                         -0.2143073              -5.8316
        33                         -0.1804704              -4.9109
        34                         -0.0784826              -2.1356
        35                          0.0409547               1.1144
        36                          0.0921368               2.5072
        37                          0.1274611               3.4684
        38                          0.1390132               3.7827
        39                          0.1594581               4.3391
        40                          0.1729404               4.7059
        41                          0.1977853               5.3820
       ...                                ...                  ...
        51                          0.6985411              19.0083
      -------------------------------------------------------------
                  HL-Gap            0.0646366 Eh            1.7589 eV

     #   Z          covCN         q      C6AA      α(0)
     1   6 C        2.889     0.109    25.582     8.292
     2   6 C        2.920    -0.062    29.554     8.915
     3   6 C        2.910    -0.033    28.812     8.802
     4   6 C        2.911    -0.014    28.354     8.732
     5   6 C        2.910    -0.031    28.783     8.797
     6   6 C        2.914    -0.071    29.772     8.947
     7   8 O        0.929    -0.576    25.482     6.770
     8   1 H        0.925     0.028     2.613     2.528
     9   1 H        0.926     0.056     2.242     2.342
    10   1 H        0.926     0.043     2.411     2.428
    11   7 N        2.765     0.446    14.646     5.684
    12   1 H        0.926     0.039     2.459     2.452
    13   8 O        0.929    -0.573    25.414     6.761
    14   7 N        1.785    -0.448    32.731     8.473
    15   1 H        0.860     0.133     1.520     1.932
    16   8 O        1.607    -0.703    27.799     7.116
    17   1 H        0.803     0.311     0.690     1.305
    18   1 H        0.805     0.344     0.602     1.219

Wiberg/Mayer (AO) data.
largest (>0.10) Wiberg bond orders for each atom

     #   Z sym  total        # sym  WBO       # sym  WBO       # sym  WBO
 ---------------------------------------------------------------------------
     1   6 C    3.979 --    14 N    1.595     2 C    1.152     6 C    1.147
     2   6 C    3.988 --     3 C    1.666     1 C    1.152     9 H    0.965
     3   6 C    3.990 --     2 C    1.666     4 C    1.212    10 H    0.965
     4   6 C    3.939 --     5 C    1.220     3 C    1.212    11 N    1.197
                            13 O    0.106     7 O    0.106
     5   6 C    3.990 --     6 C    1.656     4 C    1.220    12 H    0.965
     6   6 C    3.986 --     5 C    1.656     1 C    1.147     8 H    0.967
     7   8 O    1.665 --    11 N    1.261    13 O    0.202     4 C    0.106
     8   1 H    0.999 --     6 C    0.967
     9   1 H    0.996 --     2 C    0.965
    10   1 H    0.997 --     3 C    0.965
    11   7 N    3.819 --    13 O    1.265     7 O    1.261     4 C    1.197
    12   1 H    0.998 --     5 C    0.965
    13   8 O    1.669 --    11 N    1.265     7 O    0.202     4 C    0.106
    14   7 N    2.848 --     1 C    1.595    15 H    0.955
    15   1 H    0.981 --    14 N    0.955
    16   8 O    1.753 --    18 H    0.881    17 H    0.837
    17   1 H    0.903 --    16 O    0.837
    18   1 H    0.882 --    16 O    0.881
 ---------------------------------------------------------------------------

molecular dipole:
                 x           y           z       tot (Debye)
 q only:        8.734       6.642       0.589
   full:        8.333       6.290       0.866      26.629

 projected vibrational frequencies (cm⁻¹)
eigval :       -0.00    -0.00     0.00     0.00     0.00     0.00
eigval :       37.56    44.17    87.13   105.71   133.69   163.14
eigval :      225.47   241.53   355.61   374.04   402.70   420.77
eigval :      432.14   543.47   602.22   612.21   640.04   652.44
eigval :      687.97   736.35   771.12   820.52   841.67   852.99
eigval :      919.31   926.11   969.16  1100.74  1126.95  1163.85
eigval :     1182.91  1275.18  1337.22  1367.88  1395.90  1398.47
eigval :     1474.67  1507.53  1544.46  1560.75  1619.13  3048.45
eigval :     3070.18  3077.28  3083.44  3103.54  3340.52  3620.39

   temp. (K)  partition function   enthalpy   heat capacity  entropy
                                   cal/mol     cal/K/mol   cal/K/mol   J/K/mol
 298.15  VIB  0.700E+04             5427.871     33.527     33.648
         ROT  0.111E+07              888.752      2.981     30.647
         INT  0.778E+10             6316.623     36.508     64.295
         TR   0.187E+28             1481.254      4.968     41.008
         TOT                        7797.8774    41.4757   105.3029   440.5874

       T/K    H(0)-H(T)+PV         H(T)/Eh          T*S/Eh         G(T)/Eh
   ------------------------------------------------------------------------
    298.15    0.124267E-01    0.137723E+00    0.500328E-01    0.876901E-01
   ------------------------------------------------------------------------

         :::::::::::::::::::::::::::::::::::::::::::::::::::::
         ::                  THERMODYNAMIC                  ::
         :::::::::::::::::::::::::::::::::::::::::::::::::::::
         :: total free energy         -34.587461124730 Eh   ::
         ::.................................................::
         :: total energy              -34.675151233956 Eh   ::
         :: zero point energy           0.125296210645 Eh   ::
         :: G(RRHO) w/o ZPVE           -0.037606101419 Eh   ::
         :: G(RRHO) contrib.            0.087690109225 Eh   ::
         :::::::::::::::::::::::::::::::::::::::::::::::::::::

           -------------------------------------------------
          | TOTAL ENERGY              -34.675151233956 Eh   |
          | TOTAL ENTHALPY            -34.537428314653 Eh   |
          | TOTAL FREE ENERGY         -34.587461124730 Eh   |
          | GRADIENT NORM               0.000731770376 Eh/α |
          | HOMO-LUMO GAP               1.758851734184 eV   |
           -------------------------------------------------

 * finished run on 2025/10/18 at 05:16:13.709
normal termination of xtb
