   * xtb version 6.7.1 (edcfbbe) compiled by 'albert@albert-system' on 2024-07-22

   ID    Z sym.   atoms
    1    6 C      1-6
    2    8 O      7, 13, 16
    3    1 H      8-10, 12, 15, 17, 18
    4    7 N      11, 14

          program call               : xtb tb_lite_results_shiftn0p15_gp799_b0_rot180_complex.xyz --ohess --chrg -1 --alpb water
      * Solvation model:               ALPB
        Solvent                        water
        Solvent mass                       1.8000E+01 g/mol
          :  Hamiltonian                  GFN2-xTB          :
 * total energy  :   -34.6687445 Eh     change       -0.1149090E-08 Eh
 * total energy  :   -34.6731605 Eh     change       -0.4415947E-02 Eh
 * total energy  :   -34.6737309 Eh     change       -0.5704163E-03 Eh
 * total energy  :   -34.6738091 Eh     change       -0.7818342E-04 Eh
 * total energy  :   -34.6738587 Eh     change       -0.4958169E-04 Eh
 * total energy  :   -34.6738762 Eh     change       -0.1751064E-04 Eh
 * total energy  :   -34.6739020 Eh     change       -0.2579122E-04 Eh
 * total energy  :   -34.6739001 Eh     change        0.1833803E-05 Eh
 * total energy  :   -34.6739683 Eh     change       -0.6819038E-04 Eh
 * total energy  :   -34.6740062 Eh     change       -0.3793199E-04 Eh
 * total energy  :   -34.6747847 Eh     change       -0.2511209E-04 Eh
 * total energy  :   -34.6744728 Eh     change        0.3119787E-03 Eh
 * total energy  :   -34.6748358 Eh     change       -0.3630539E-03 Eh
 * total energy  :   -34.6748670 Eh     change       -0.3122423E-04 Eh
 * total energy  :   -34.6716342 Eh     change        0.3232856E-02 Eh
 * total energy  :   -34.6748236 Eh     change       -0.3189395E-02 Eh
 * total energy  :   -34.6749341 Eh     change       -0.1104768E-03 Eh
 * total energy  :   -34.6749601 Eh     change       -0.2603264E-04 Eh
 * total energy  :   -34.6749644 Eh     change       -0.4331012E-05 Eh
   *** GEOMETRY OPTIMIZATION CONVERGED AFTER 39 ITERATIONS ***

 final structure:
================
18
 xtb: 6.7.1 (edcfbbe)
C           -2.00189630292147       -2.93591114516897        1.56578448094391
C           -2.42673014389372       -2.29611388721471        0.34883706826219
C           -3.61341445898507       -2.58823094389723       -0.22793032556027
C           -4.48769003335050       -3.54424187254403        0.35225247090768
C           -4.10242269281001       -4.18111174087520        1.55812908756983
C           -2.91791114276216       -3.88912133383578        2.14091858170970
O           -6.44553977560866       -4.69099846935993        0.29213437155924
H           -2.62736586461398       -4.37767152359809        3.06182411624673
H           -1.76022794152208       -1.56631949780053       -0.08306204139031
H           -3.93462091882303       -2.10987599817702       -1.14138640202883
N           -5.67439425480984       -3.84274499656537       -0.23323381928492
H           -4.78639774334189       -4.90079163413971        1.98477578689784
O           -6.01576668976615       -3.27264118287284       -1.30420003601957
N           -0.84078417940789       -2.63292773858339        2.06638441503016
H           -0.64243001249653       -3.13438615937622        2.92925363715101
O            0.91783970574549       -0.93752083797425        0.77958153919100
H            0.28088258926376       -1.48876738847654        1.29092790693178
H            1.45287564745138       -1.56255062120064        0.28077789664601

          :  Hamiltonian                  GFN2-xTB          :
         :: gradient norm              0.000765837479 Eh/a0 ::
         :: HOMO-LUMO gap              1.759773129612 eV    ::
         :: SCC energy               -35.064774410512 Eh    ::
         :: -> dispersion             -0.015240714988 Eh    ::
         :: -> Gsolv                  -0.093701093160 Eh    ::
         :: repulsion energy           0.389809986012 Eh    ::

    * Orbital Energies and Occupations

         #    Occupation            Energy/Eh            Energy/eV
      -------------------------------------------------------------
         1        2.0000           -0.7204897             -19.6055
       ...           ...                  ...                  ...
        18        2.0000           -0.4808700             -13.0851
        19        2.0000           -0.4778611             -13.0033
        20        2.0000           -0.4758081             -12.9474
        21        2.0000           -0.4490001             -12.2179
        22        2.0000           -0.4341292             -11.8133
        23        2.0000           -0.4328111             -11.7774
        24        2.0000           -0.4225130             -11.4972
        25        2.0000           -0.4125729             -11.2267
        26        2.0000           -0.4110724             -11.1858
        27        2.0000           -0.4104280             -11.1683
        28        2.0000           -0.4082387             -11.1087
        29        2.0000           -0.3654672              -9.9449
        30        2.0000           -0.3499587              -9.5229 (HOMO)
        31                         -0.2852881              -7.7631 (LUMO)
        32                         -0.2146059              -5.8397
        33                         -0.1806695              -4.9163
        34                         -0.0787275              -2.1423
        35                          0.0408938               1.1128
        36                          0.0924732               2.5163
        37                          0.1272358               3.4623
        38                          0.1390075               3.7826
        39                          0.1593422               4.3359
        40                          0.1715771               4.6688
        41                          0.1974679               5.3734
       ...                                ...                  ...
        51                          0.6987426              19.0138
      -------------------------------------------------------------
                  HL-Gap            0.0646706 Eh            1.7598 eV

     #   Z          covCN         q      C6AA      α(0)
     1   6 C        2.889     0.110    25.579     8.292
     2   6 C        2.920    -0.063    29.558     8.915
     3   6 C        2.911    -0.033    28.813     8.802
     4   6 C        2.911    -0.014    28.356     8.732
     5   6 C        2.910    -0.031    28.782     8.797
     6   6 C        2.914    -0.071    29.771     8.947
     7   8 O        0.929    -0.575    25.475     6.769
     8   1 H        0.925     0.028     2.616     2.529
     9   1 H        0.926     0.056     2.248     2.345
    10   1 H        0.926     0.043     2.406     2.426
    11   7 N        2.765     0.447    14.644     5.683
    12   1 H        0.926     0.039     2.461     2.453
    13   8 O        0.929    -0.573    25.417     6.761
    14   7 N        1.786    -0.447    32.710     8.471
    15   1 H        0.860     0.133     1.525     1.935
    16   8 O        1.607    -0.702    27.753     7.110
    17   1 H        0.803     0.312     0.685     1.300
    18   1 H        0.805     0.341     0.611     1.227

Wiberg/Mayer (AO) data.
largest (>0.10) Wiberg bond orders for each atom

     #   Z sym  total        # sym  WBO       # sym  WBO       # sym  WBO
 ---------------------------------------------------------------------------
     1   6 C    3.979 --    14 N    1.596     2 C    1.152     6 C    1.146
     2   6 C    3.988 --     3 C    1.666     1 C    1.152     9 H    0.966
     3   6 C    3.990 --     2 C    1.666     4 C    1.213    10 H    0.965
     4   6 C    3.939 --     5 C    1.220     3 C    1.213    11 N    1.197
                            13 O    0.106     7 O    0.106
     5   6 C    3.990 --     6 C    1.657     4 C    1.220    12 H    0.965
     6   6 C    3.986 --     5 C    1.657     1 C    1.146     8 H    0.967
     7   8 O    1.665 --    11 N    1.262    13 O    0.202     4 C    0.106
     8   1 H    0.999 --     6 C    0.967
     9   1 H    0.996 --     2 C    0.966
    10   1 H    0.997 --     3 C    0.965
    11   7 N    3.819 --    13 O    1.264     7 O    1.262     4 C    1.197
    12   1 H    0.998 --     5 C    0.965
    13   8 O    1.669 --    11 N    1.264     7 O    0.202     4 C    0.106
    14   7 N    2.849 --     1 C    1.596    15 H    0.955
    15   1 H    0.982 --    14 N    0.955
    16   8 O    1.754 --    18 H    0.884    17 H    0.836
    17   1 H    0.902 --    16 O    0.836
    18   1 H    0.884 --    16 O    0.884
 ---------------------------------------------------------------------------

molecular dipole:
                 x           y           z       tot (Debye)
 q only:        9.010       5.950      -0.091
   full:        8.640       5.464       0.051      25.985

 projected vibrational frequencies (cm⁻¹)
eigval :       -0.00    -0.00     0.00     0.00     0.00     0.00
eigval :       31.64    35.46    86.07   100.02   147.51   164.20
eigval :      224.83   242.04   355.92   373.40   410.59   418.05
eigval :      431.50   543.44   601.88   612.30   639.35   655.57
eigval :      687.80   733.56   771.26   819.77   841.01   853.17
eigval :      917.67   925.25   969.10  1100.21  1127.08  1162.09
eigval :     1182.34  1274.42  1336.85  1367.49  1395.85  1398.90
eigval :     1474.75  1506.32  1544.60  1561.07  1619.36  3049.23
eigval :     3070.11  3078.21  3084.55  3104.45  3344.00  3615.80

   temp. (K)  partition function   enthalpy   heat capacity  entropy
                                   cal/mol     cal/K/mol   cal/K/mol   J/K/mol
 298.15  VIB  0.977E+04             5437.386     33.232     33.606
         ROT  0.111E+07              888.752      2.981     30.651
         INT  0.109E+11             6326.139     36.213     64.257
         TR   0.187E+28             1481.254      4.968     41.008
         TOT                        7807.3925    41.1808   105.2648   440.4279

       T/K    H(0)-H(T)+PV         H(T)/Eh          T*S/Eh         G(T)/Eh
   ------------------------------------------------------------------------
    298.15    0.124419E-01    0.137718E+00    0.500147E-01    0.877037E-01
   ------------------------------------------------------------------------

         :::::::::::::::::::::::::::::::::::::::::::::::::::::
         ::                  THERMODYNAMIC                  ::
         :::::::::::::::::::::::::::::::::::::::::::::::::::::
         :: total free energy         -34.587260716528 Eh   ::
         ::.................................................::
         :: total energy              -34.674964427383 Eh   ::
         :: zero point energy           0.125276533895 Eh   ::
         :: G(RRHO) w/o ZPVE           -0.037572823040 Eh   ::
         :: G(RRHO) contrib.            0.087703710855 Eh   ::
         :::::::::::::::::::::::::::::::::::::::::::::::::::::

           -------------------------------------------------
          | TOTAL ENERGY              -34.674964427383 Eh   |
          | TOTAL ENTHALPY            -34.537246021527 Eh   |
          | TOTAL FREE ENERGY         -34.587260716528 Eh   |
          | GRADIENT NORM               0.000765503896 Eh/α |
          | HOMO-LUMO GAP               1.759777004568 eV   |
           -------------------------------------------------

 * finished run on 2025/10/18 at 05:16:19.727
normal termination of xtb
