   * xtb version 6.7.1 (edcfbbe) compiled by 'albert@albert-system' on 2024-07-22

   ID    Z sym.   atoms
    1    6 C      1-6
    2    8 O      7, 13
    3    1 H      8-10, 12, 15
    4    7 N      11, 14

          program call               : xtb tb_lite_results_shiftn0p15_gp799_b0_rot180_solute.xyz --ohess --chrg -1
          :  Hamiltonian                  GFN2-xTB          :
 * total energy  :   -29.4976903 Eh     change       -0.1577209E-08 Eh
 * total energy  :   -29.5010310 Eh     change       -0.3340769E-02 Eh
 * total energy  :   -29.5013693 Eh     change       -0.3383036E-03 Eh
 * total energy  :   -29.5013908 Eh     change       -0.2145771E-04 Eh
 * total energy  :   -29.5013966 Eh     change       -0.5776150E-05 Eh
 * total energy  :   -29.5013929 Eh     change        0.3655921E-05 Eh
 * total energy  :   -29.5013978 Eh     change       -0.4909801E-05 Eh
   *** GEOMETRY OPTIMIZATION CONVERGED AFTER 7 ITERATIONS ***

 final structure:
================
15
 xtb: 6.7.1 (edcfbbe)
C           -2.04602564863223       -2.81823740868504        1.55786425815114
C           -2.54394793281926       -2.17071858444575        0.37424450440865
C           -3.71533255177295       -2.52987150274819       -0.20157743035748
C           -4.50807419545203       -3.56869252056436        0.34258401141246
C           -4.04897519803359       -4.22680635023033        1.50567947939582
C           -2.87739634052839       -3.87157062608408        2.08611618399993
O           -6.37256251490553       -4.84798670660357        0.25741637288447
H           -2.53374991598492       -4.38383108102042        2.97968820505820
H           -1.93812084611978       -1.37764170683441       -0.04053151356141
H           -4.07924581502192       -2.03533947947739       -1.09166398134693
N           -5.69473675000962       -3.92945764885295       -0.24426279819737
H           -4.66276586919749       -5.01917426753670        1.91297505136107
O           -6.07775453723942       -3.33407780289412       -1.27017142503146
N           -0.91347746145679       -2.42695062407340        2.06280212101301
H           -0.66629268349698       -2.96092393474138        2.89981902558458

          :  Hamiltonian                  GFN2-xTB          :
         :: gradient norm              0.000110824909 Eh/a0 ::
         :: HOMO-LUMO gap              1.838708030477 eV    ::
         :: SCC energy               -29.859792124781 Eh    ::
         :: -> dispersion             -0.013797270391 Eh    ::
         :: repulsion energy           0.358394300880 Eh    ::

    * Orbital Energies and Occupations

         #    Occupation            Energy/Eh            Energy/eV
      -------------------------------------------------------------
         1        2.0000           -0.5728228             -15.5873
       ...           ...                  ...                  ...
        14        2.0000           -0.3505558              -9.5391
        15        2.0000           -0.3422032              -9.3118
        16        2.0000           -0.3391337              -9.2283
        17        2.0000           -0.3373421              -9.1795
        18        2.0000           -0.3084281              -8.3928
        19        2.0000           -0.2880333              -7.8378
        20        2.0000           -0.2826719              -7.6919
        21        2.0000           -0.2805385              -7.6338
        22        2.0000           -0.2673333              -7.2745
        23        2.0000           -0.2591325              -7.0514
        24        2.0000           -0.2588355              -7.0433
        25        2.0000           -0.2150958              -5.8531
        26        2.0000           -0.2011473              -5.4735 (HOMO)
        27                         -0.1335763              -3.6348 (LUMO)
        28                         -0.0751643              -2.0453
        29                         -0.0345093              -0.9390
        30                          0.0637001               1.7334
        31                          0.1934881               5.2651
        32                          0.2431574               6.6166
        33                          0.2697140               7.3393
        34                          0.2928750               7.9695
        35                          0.3029164               8.2428
        36                          0.3373365               9.1794
        37                          0.3585817               9.7575
       ...                                ...                  ...
        45                          0.8322651              22.6471
      -------------------------------------------------------------
                  HL-Gap            0.0675710 Eh            1.8387 eV

     #   Z          covCN         q      C6AA      α(0)
     1   6 C        2.887     0.104    25.698     8.311
     2   6 C        2.921    -0.067    29.659     8.931
     3   6 C        2.911    -0.038    28.949     8.823
     4   6 C        2.912    -0.031    28.769     8.795
     5   6 C        2.910    -0.037    28.913     8.817
     6   6 C        2.914    -0.077    29.931     8.971
     7   8 O        0.930    -0.512    24.005     6.571
     8   1 H        0.925    -0.011     3.249     2.819
     9   1 H        0.926     0.013     2.835     2.633
    10   1 H        0.925     0.029     2.605     2.524
    11   7 N        2.763     0.471    14.358     5.628
    12   1 H        0.925     0.025     2.653     2.547
    13   8 O        0.930    -0.510    23.974     6.567
    14   7 N        1.784    -0.437    32.413     8.432
    15   1 H        0.860     0.077     2.024     2.229

Wiberg/Mayer (AO) data.
largest (>0.10) Wiberg bond orders for each atom

     #   Z sym  total        # sym  WBO       # sym  WBO       # sym  WBO
 ---------------------------------------------------------------------------
     1   6 C    3.981 --    14 N    1.597     2 C    1.156     6 C    1.149
     2   6 C    3.988 --     3 C    1.647     1 C    1.156     9 H    0.970
     3   6 C    3.992 --     2 C    1.647     4 C    1.234    10 H    0.966
     4   6 C    3.943 --     5 C    1.243     3 C    1.234    11 N    1.149
     5   6 C    3.992 --     6 C    1.637     4 C    1.243    12 H    0.965
     6   6 C    3.983 --     5 C    1.637     1 C    1.149     8 H    0.968
     7   8 O    1.736 --    11 N    1.309    13 O    0.241
     8   1 H    0.999 --     6 C    0.968
     9   1 H    0.999 --     2 C    0.970
    10   1 H    0.998 --     3 C    0.966
    11   7 N    3.849 --    13 O    1.311     7 O    1.309     4 C    1.149
    12   1 H    0.999 --     5 C    0.965
    13   8 O    1.738 --    11 N    1.311     7 O    0.241
    14   7 N    2.792 --     1 C    1.597    15 H    0.968
    15   1 H    0.993 --    14 N    0.968
 ---------------------------------------------------------------------------

molecular dipole:
                 x           y           z       tot (Debye)
 q only:        8.318       6.650      -0.708
   full:        8.128       6.344      -0.511      26.239

 projected vibrational frequencies (cm⁻¹)
eigval :       -0.00    -0.00    -0.00    -0.00     0.00     0.00
eigval :       92.40    93.32   211.08   247.06   352.75   374.69
eigval :      400.99   430.39   547.95   603.48   618.04   650.44
eigval :      701.01   746.40   781.57   808.20   837.20   857.03
eigval :      914.79   920.09   973.02  1100.51  1145.59  1171.83
eigval :     1200.35  1282.66  1349.93  1377.50  1412.97  1474.59
eigval :     1509.20  1536.37  1565.78  1623.74  3007.61  3063.25
eigval :     3063.98  3077.50  3258.40

   temp. (K)  partition function   enthalpy   heat capacity  entropy
                                   cal/mol     cal/K/mol   cal/K/mol   J/K/mol
 298.15  VIB   51.4                 3280.011     24.583     18.729
         ROT  0.560E+06              888.752      2.981     29.283
         INT  0.288E+08             4168.763     27.564     48.012
         TR   0.155E+28             1481.254      4.968     40.640
         TOT                        5650.0168    32.5322    88.6525   370.9222

       T/K    H(0)-H(T)+PV         H(T)/Eh          T*S/Eh         G(T)/Eh
   ------------------------------------------------------------------------
    298.15    0.900387E-02    0.112395E+00    0.421217E-01    0.702737E-01
   ------------------------------------------------------------------------

         :::::::::::::::::::::::::::::::::::::::::::::::::::::
         ::                  THERMODYNAMIC                  ::
         :::::::::::::::::::::::::::::::::::::::::::::::::::::
         :: total free energy         -29.431124116703 Eh   ::
         ::.................................................::
         :: total energy              -29.501397823899 Eh   ::
         :: zero point energy           0.103391515776 Eh   ::
         :: G(RRHO) w/o ZPVE           -0.033117808581 Eh   ::
         :: G(RRHO) contrib.            0.070273707195 Eh   ::
         :::::::::::::::::::::::::::::::::::::::::::::::::::::

           -------------------------------------------------
          | TOTAL ENERGY              -29.501397823899 Eh   |
          | TOTAL ENTHALPY            -29.389002433227 Eh   |
          | TOTAL FREE ENERGY         -29.431124116703 Eh   |
          | GRADIENT NORM               0.000111711337 Eh/α |
          | HOMO-LUMO GAP               1.838700176615 eV   |
           -------------------------------------------------

 * finished run on 2025/10/18 at 05:16:20.631
normal termination of xtb
