   * xtb version 6.7.1 (edcfbbe) compiled by 'albert@albert-system' on 2024-07-22

   ID    Z sym.   atoms
    1    6 C      1-6
    2    8 O      7, 13, 16
    3    1 H      8-10, 12, 15, 17, 18
    4    7 N      11, 14

          program call               : xtb tb_lite_results_shiftn0p1_gp769_b0_rot180_complex.xyz --ohess --chrg -1 --alpb water
      * Solvation model:               ALPB
        Solvent                        water
        Solvent mass                       1.8000E+01 g/mol
          :  Hamiltonian                  GFN2-xTB          :
 * total energy  :   -34.6693087 Eh     change       -0.7995382E-09 Eh
 * total energy  :   -34.6733690 Eh     change       -0.4060303E-02 Eh
 * total energy  :   -34.6739179 Eh     change       -0.5488338E-03 Eh
 * total energy  :   -34.6739860 Eh     change       -0.6811910E-04 Eh
 * total energy  :   -34.6740286 Eh     change       -0.4264702E-04 Eh
 * total energy  :   -34.6740465 Eh     change       -0.1783121E-04 Eh
 * total energy  :   -34.6740588 Eh     change       -0.1231071E-04 Eh
 * total energy  :   -34.6741192 Eh     change       -0.6041408E-04 Eh
 * total energy  :   -34.6741667 Eh     change       -0.4749992E-04 Eh
 * total energy  :   -34.6737879 Eh     change        0.3787545E-03 Eh
 * total energy  :   -34.6750863 Eh     change       -0.4232431E-04 Eh
 * total energy  :   -34.6750969 Eh     change       -0.1053189E-04 Eh
 * total energy  :   -34.6750510 Eh     change        0.4590351E-04 Eh
 * total energy  :   -34.6751139 Eh     change       -0.6295402E-04 Eh
 * total energy  :   -34.6751179 Eh     change       -0.3963878E-05 Eh
 * total energy  :   -34.6751270 Eh     change       -0.9151087E-05 Eh
 * total energy  :   -34.6751255 Eh     change        0.1510290E-05 Eh
 * total energy  :   -34.6751424 Eh     change       -0.1689104E-04 Eh
 * total energy  :   -34.6751468 Eh     change       -0.4394329E-05 Eh
   *** GEOMETRY OPTIMIZATION CONVERGED AFTER 42 ITERATIONS ***

 final structure:
================
18
 xtb: 6.7.1 (edcfbbe)
C           -2.02475949173191       -2.85600194231324        1.61459348408259
C           -2.46170717330210       -2.19279267005823        0.41444757255083
C           -3.62340063831264       -2.52130327753683       -0.19268023957555
C           -4.45738852118160       -3.54076095852884        0.33671439474211
C           -4.04568636280013       -4.22227383890040        1.50890747082232
C           -2.88358283369009       -3.89800954989536        2.11924137679497
O           -6.36059005971060       -4.77137033851157        0.20780826955980
H           -2.57269628277806       -4.42092996369773        3.01429445606357
H           -1.81981869998772       -1.42408912909978        0.01356133453889
H           -3.95416879284409       -2.02479647064828       -1.09303609147032
N           -5.62868133873031       -3.86098031887689       -0.26808846856442
H           -4.69226116667708       -5.00046915133986        1.88862251787986
O           -5.99428517220823       -3.25073640978801       -1.30832820105709
N           -0.90848668011021       -2.48601814731374        2.16977049693000
H           -0.69089205120765       -3.02210607588236        3.00706378422180
O            0.61376921374304       -0.53213724154351        0.95097516745769
H            0.12085909690296       -1.27924011998520        1.36212502243889
H            0.58014784172496        0.18273988852169        1.59404154444542

          :  Hamiltonian                  GFN2-xTB          :
         :: gradient norm              0.000679055472 Eh/a0 ::
         :: HOMO-LUMO gap              1.758396386121 eV    ::
         :: SCC energy               -35.064876350889 Eh    ::
         :: -> dispersion             -0.015279320420 Eh    ::
         :: -> Gsolv                  -0.094583796315 Eh    ::
         :: repulsion energy           0.389729543773 Eh    ::

    * Orbital Energies and Occupations

         #    Occupation            Energy/Eh            Energy/eV
      -------------------------------------------------------------
         1        2.0000           -0.7201885             -19.5973
       ...           ...                  ...                  ...
        18        2.0000           -0.4804949             -13.0749
        19        2.0000           -0.4771531             -12.9840
        20        2.0000           -0.4755644             -12.9408
        21        2.0000           -0.4485629             -12.2060
        22        2.0000           -0.4337789             -11.8037
        23        2.0000           -0.4325438             -11.7701
        24        2.0000           -0.4222049             -11.4888
        25        2.0000           -0.4123791             -11.2214
        26        2.0000           -0.4105911             -11.1728
        27        2.0000           -0.4101605             -11.1610
        28        2.0000           -0.4078094             -11.0971
        29        2.0000           -0.3654379              -9.9441
        30        2.0000           -0.3496432              -9.5143 (HOMO)
        31                         -0.2850232              -7.7559 (LUMO)
        32                         -0.2141755              -5.8280
        33                         -0.1803835              -4.9085
        34                         -0.0783630              -2.1324
        35                          0.0410014               1.1157
        36                          0.0919283               2.5015
        37                          0.1273399               3.4651
        38                          0.1389241               3.7803
        39                          0.1596877               4.3453
        40                          0.1736729               4.7259
        41                          0.1976234               5.3776
       ...                                ...                  ...
        51                          0.6987044              19.0127
      -------------------------------------------------------------
                  HL-Gap            0.0646200 Eh            1.7584 eV

     #   Z          covCN         q      C6AA      α(0)
     1   6 C        2.889     0.110    25.581     8.292
     2   6 C        2.920    -0.063    29.559     8.916
     3   6 C        2.911    -0.033    28.813     8.802
     4   6 C        2.911    -0.014    28.355     8.732
     5   6 C        2.910    -0.031    28.784     8.797
     6   6 C        2.914    -0.071    29.772     8.947
     7   8 O        0.929    -0.576    25.484     6.770
     8   1 H        0.925     0.028     2.615     2.529
     9   1 H        0.926     0.057     2.231     2.336
    10   1 H        0.926     0.043     2.412     2.428
    11   7 N        2.765     0.446    14.647     5.684
    12   1 H        0.926     0.039     2.461     2.453
    13   8 O        0.929    -0.573    25.416     6.761
    14   7 N        1.785    -0.448    32.733     8.474
    15   1 H        0.860     0.133     1.523     1.933
    16   8 O        1.607    -0.703    27.798     7.116
    17   1 H        0.803     0.312     0.688     1.303
    18   1 H        0.805     0.344     0.603     1.220

Wiberg/Mayer (AO) data.
largest (>0.10) Wiberg bond orders for each atom

     #   Z sym  total        # sym  WBO       # sym  WBO       # sym  WBO
 ---------------------------------------------------------------------------
     1   6 C    3.979 --    14 N    1.595     2 C    1.152     6 C    1.147
     2   6 C    3.988 --     3 C    1.666     1 C    1.152     9 H    0.965
     3   6 C    3.990 --     2 C    1.666     4 C    1.212    10 H    0.965
     4   6 C    3.939 --     5 C    1.220     3 C    1.212    11 N    1.197
                            13 O    0.106     7 O    0.106
     5   6 C    3.990 --     6 C    1.657     4 C    1.220    12 H    0.965
     6   6 C    3.986 --     5 C    1.657     1 C    1.147     8 H    0.967
     7   8 O    1.664 --    11 N    1.261    13 O    0.202     4 C    0.106
     8   1 H    0.999 --     6 C    0.967
     9   1 H    0.996 --     2 C    0.965
    10   1 H    0.997 --     3 C    0.965
    11   7 N    3.819 --    13 O    1.264     7 O    1.261     4 C    1.197
    12   1 H    0.998 --     5 C    0.965
    13   8 O    1.669 --    11 N    1.264     7 O    0.202     4 C    0.106
    14   7 N    2.848 --     1 C    1.595    15 H    0.955
    15   1 H    0.982 --    14 N    0.955
    16   8 O    1.753 --    18 H    0.881    17 H    0.837
    17   1 H    0.903 --    16 O    0.837
    18   1 H    0.882 --    16 O    0.881
 ---------------------------------------------------------------------------

molecular dipole:
                 x           y           z       tot (Debye)
 q only:        8.727       6.639       0.582
   full:        8.317       6.298       0.859      26.607

 projected vibrational frequencies (cm⁻¹)
eigval :       -0.00    -0.00    -0.00     0.00     0.00     0.00
eigval :       38.58    48.65    86.80   103.40   163.57   177.08
eigval :      226.17   241.88   355.50   373.63   404.00   419.37
eigval :      431.56   543.54   602.43   612.26   639.99   650.14
eigval :      687.83   734.73   771.20   820.20   841.93   853.04
eigval :      918.35   926.23   969.45  1100.77  1126.97  1164.09
eigval :     1183.26  1275.28  1337.32  1367.87  1395.89  1398.65
eigval :     1474.94  1505.09  1544.73  1560.68  1619.37  3048.93
eigval :     3075.13  3078.84  3083.87  3104.52  3340.70  3616.08

   temp. (K)  partition function   enthalpy   heat capacity  entropy
                                   cal/mol     cal/K/mol   cal/K/mol   J/K/mol
 298.15  VIB  0.528E+04             5377.186     33.607     33.150
         ROT  0.111E+07              888.752      2.981     30.642
         INT  0.585E+10             6265.938     36.588     63.792
         TR   0.187E+28             1481.254      4.968     41.008
         TOT                        7747.1919    41.5559   104.8003   438.4846

       T/K    H(0)-H(T)+PV         H(T)/Eh          T*S/Eh         G(T)/Eh
   ------------------------------------------------------------------------
    298.15    0.123459E-01    0.137747E+00    0.497940E-01    0.879525E-01
   ------------------------------------------------------------------------

         :::::::::::::::::::::::::::::::::::::::::::::::::::::
         ::                  THERMODYNAMIC                  ::
         :::::::::::::::::::::::::::::::::::::::::::::::::::::
         :: total free energy         -34.587194287010 Eh   ::
         ::.................................................::
         :: total energy              -34.675146808061 Eh   ::
         :: zero point energy           0.125400610399 Eh   ::
         :: G(RRHO) w/o ZPVE           -0.037448089348 Eh   ::
         :: G(RRHO) contrib.            0.087952521051 Eh   ::
         :::::::::::::::::::::::::::::::::::::::::::::::::::::

           -------------------------------------------------
          | TOTAL ENERGY              -34.675146808061 Eh   |
          | TOTAL ENTHALPY            -34.537400261500 Eh   |
          | TOTAL FREE ENERGY         -34.587194287010 Eh   |
          | GRADIENT NORM               0.000678815364 Eh/α |
          | HOMO-LUMO GAP               1.758398757476 eV   |
           -------------------------------------------------

 * finished run on 2025/10/18 at 05:16:05.909
normal termination of xtb
