   * xtb version 6.7.1 (edcfbbe) compiled by 'albert@albert-system' on 2024-07-22

   ID    Z sym.   atoms
    1    6 C      1-6
    2    8 O      7, 13, 16
    3    1 H      8-10, 12, 15, 17, 18
    4    7 N      11, 14

          program call               : xtb tb_lite_results_shiftn0p1_gp799_b0_rot180_complex.xyz --ohess --chrg -1 --alpb water
      * Solvation model:               ALPB
        Solvent                        water
        Solvent mass                       1.8000E+01 g/mol
          :  Hamiltonian                  GFN2-xTB          :
 * total energy  :   -34.6690884 Eh     change       -0.1090967E-08 Eh
 * total energy  :   -34.6732018 Eh     change       -0.4113424E-02 Eh
 * total energy  :   -34.6737437 Eh     change       -0.5419296E-03 Eh
 * total energy  :   -34.6738142 Eh     change       -0.7049274E-04 Eh
 * total energy  :   -34.6738546 Eh     change       -0.4036190E-04 Eh
 * total energy  :   -34.6738691 Eh     change       -0.1448077E-04 Eh
 * total energy  :   -34.6738920 Eh     change       -0.2295849E-04 Eh
 * total energy  :   -34.6738009 Eh     change        0.9115153E-04 Eh
 * total energy  :   -34.6739490 Eh     change       -0.1481283E-03 Eh
 * total energy  :   -34.6739837 Eh     change       -0.3473905E-04 Eh
 * total energy  :   -34.6749813 Eh     change       -0.2578761E-04 Eh
 * total energy  :   -34.6749844 Eh     change       -0.3076618E-05 Eh
 * total energy  :   -34.6750100 Eh     change       -0.2561004E-04 Eh
 * total energy  :   -34.6750210 Eh     change       -0.1103392E-04 Eh
 * total energy  :   -34.6750027 Eh     change        0.1830001E-04 Eh
 * total energy  :   -34.6750420 Eh     change       -0.3930198E-04 Eh
 * total energy  :   -34.6750471 Eh     change       -0.5051814E-05 Eh
 * total energy  :   -34.6750496 Eh     change       -0.2567843E-05 Eh
 * total energy  :   -34.6750527 Eh     change       -0.3029859E-05 Eh
   *** GEOMETRY OPTIMIZATION CONVERGED AFTER 47 ITERATIONS ***

 final structure:
================
18
 xtb: 6.7.1 (edcfbbe)
C           -2.00667434925386       -2.90814875394915        1.58462239603753
C           -2.39832026672029       -2.31100208506517        0.33524965230778
C           -3.57722967582028       -2.61057591161281       -0.25336005111535
C           -4.47512153615721       -3.53294669179596        0.34509067061862
C           -4.12141340000399       -4.12916763518724        1.58109999518200
C           -2.94526935020327       -3.82874511060841        2.17646276257393
O           -6.44372448798984       -4.66155495776848        0.28634141919635
H           -2.67878853036703       -4.28586000806535        3.12057622432231
H           -1.71263445693523       -1.60894165205409       -0.11271722976041
H           -3.87391248194531       -2.16359602004829       -1.19073396274833
N           -5.65299793807295       -3.84029555294914       -0.25338900990236
H           -4.82213832391723       -4.82501639909709        2.02001670104748
O           -5.96424180512295       -3.31004246579768       -1.35359876655746
N           -0.85296167237555       -2.59814430273453        2.09822982934598
H           -0.67900529713993       -3.06920870930046        2.98342199321098
O            0.88838110496384       -1.02373845572325        0.64187534827309
H            0.25601860402265       -1.52183699416367        1.20980502195194
H            1.55835514756968       -1.66375184477907        0.38342231981637

          :  Hamiltonian                  GFN2-xTB          :
         :: gradient norm              0.000320875335 Eh/a0 ::
         :: HOMO-LUMO gap              1.758659950048 eV    ::
         :: SCC energy               -35.064775984913 Eh    ::
         :: -> dispersion             -0.015276599981 Eh    ::
         :: -> Gsolv                  -0.094365476661 Eh    ::
         :: repulsion energy           0.389723308524 Eh    ::

    * Orbital Energies and Occupations

         #    Occupation            Energy/Eh            Energy/eV
      -------------------------------------------------------------
         1        2.0000           -0.7202082             -19.5979
       ...           ...                  ...                  ...
        18        2.0000           -0.4805984             -13.0777
        19        2.0000           -0.4772963             -12.9879
        20        2.0000           -0.4757389             -12.9455
        21        2.0000           -0.4486146             -12.2074
        22        2.0000           -0.4338619             -11.8060
        23        2.0000           -0.4325740             -11.7709
        24        2.0000           -0.4222261             -11.4894
        25        2.0000           -0.4124306             -11.2228
        26        2.0000           -0.4107821             -11.1780
        27        2.0000           -0.4101964             -11.1620
        28        2.0000           -0.4079055             -11.0997
        29        2.0000           -0.3653414              -9.9414
        30        2.0000           -0.3497136              -9.5162 (HOMO)
        31                         -0.2850839              -7.7575 (LUMO)
        32                         -0.2142584              -5.8303
        33                         -0.1804496              -4.9103
        34                         -0.0784430              -2.1345
        35                          0.0409079               1.1132
        36                          0.0919041               2.5008
        37                          0.1272601               3.4629
        38                          0.1388067               3.7771
        39                          0.1595771               4.3423
        40                          0.1734265               4.7192
        41                          0.1975153               5.3747
       ...                                ...                  ...
        51                          0.6986750              19.0119
      -------------------------------------------------------------
                  HL-Gap            0.0646297 Eh            1.7587 eV

     #   Z          covCN         q      C6AA      α(0)
     1   6 C        2.889     0.110    25.581     8.292
     2   6 C        2.920    -0.063    29.560     8.916
     3   6 C        2.911    -0.033    28.812     8.802
     4   6 C        2.911    -0.014    28.354     8.732
     5   6 C        2.910    -0.031    28.783     8.797
     6   6 C        2.913    -0.071    29.773     8.947
     7   8 O        0.929    -0.576    25.484     6.770
     8   1 H        0.925     0.028     2.614     2.528
     9   1 H        0.926     0.057     2.233     2.337
    10   1 H        0.926     0.043     2.412     2.429
    11   7 N        2.765     0.446    14.648     5.684
    12   1 H        0.926     0.039     2.460     2.453
    13   8 O        0.929    -0.573    25.419     6.761
    14   7 N        1.785    -0.448    32.737     8.474
    15   1 H        0.860     0.133     1.522     1.933
    16   8 O        1.607    -0.702    27.775     7.113
    17   1 H        0.803     0.312     0.686     1.301
    18   1 H        0.805     0.342     0.606     1.223

Wiberg/Mayer (AO) data.
largest (>0.10) Wiberg bond orders for each atom

     #   Z sym  total        # sym  WBO       # sym  WBO       # sym  WBO
 ---------------------------------------------------------------------------
     1   6 C    3.979 --    14 N    1.596     2 C    1.152     6 C    1.146
     2   6 C    3.988 --     3 C    1.666     1 C    1.152     9 H    0.965
     3   6 C    3.990 --     2 C    1.666     4 C    1.212    10 H    0.965
     4   6 C    3.939 --     5 C    1.220     3 C    1.212    11 N    1.197
                            13 O    0.106     7 O    0.106
     5   6 C    3.990 --     6 C    1.657     4 C    1.220    12 H    0.965
     6   6 C    3.986 --     5 C    1.657     1 C    1.146     8 H    0.967
     7   8 O    1.664 --    11 N    1.261    13 O    0.202     4 C    0.106
     8   1 H    0.999 --     6 C    0.967
     9   1 H    0.996 --     2 C    0.965
    10   1 H    0.997 --     3 C    0.965
    11   7 N    3.819 --    13 O    1.264     7 O    1.261     4 C    1.197
    12   1 H    0.998 --     5 C    0.965
    13   8 O    1.669 --    11 N    1.264     7 O    0.202     4 C    0.106
    14   7 N    2.847 --     1 C    1.596    15 H    0.955
    15   1 H    0.982 --    14 N    0.955
    16   8 O    1.754 --    18 H    0.882    17 H    0.837
    17   1 H    0.902 --    16 O    0.837
    18   1 H    0.883 --    16 O    0.882
 ---------------------------------------------------------------------------

molecular dipole:
                 x           y           z       tot (Debye)
 q only:        9.080       5.980       0.138
   full:        8.728       5.512       0.331      26.250

 projected vibrational frequencies (cm⁻¹)
eigval :       -0.00    -0.00     0.00     0.00     0.00     0.00
eigval :       -9.51    44.25    54.48    89.57   101.82   163.81
eigval :      225.47   241.61   355.52   372.62   411.27   424.12
eigval :      432.48   543.58   602.35   612.21   638.86   650.70
eigval :      687.47   733.92   771.13   819.79   841.42   852.85
eigval :      917.77   925.56   969.22  1100.19  1126.79  1162.89
eigval :     1182.96  1274.96  1337.05  1367.50  1395.76  1398.33
eigval :     1474.66  1510.19  1544.82  1560.85  1619.42  3048.52
eigval :     3075.32  3078.88  3084.20  3103.59  3341.23  3615.40

   temp. (K)  partition function   enthalpy   heat capacity  entropy
                                   cal/mol     cal/K/mol   cal/K/mol   J/K/mol
 298.15  VIB  0.530E+05             5559.149     32.953     35.893
         ROT  0.111E+07              888.752      2.981     30.644
         INT  0.588E+11             6447.901     35.933     66.537
         TR   0.187E+28             1481.254      4.968     41.008
         TOT                        7929.1551    40.9016   107.5456   449.9707

       T/K    H(0)-H(T)+PV         H(T)/Eh          T*S/Eh         G(T)/Eh
   ------------------------------------------------------------------------
    298.15    0.126359E-01    0.137700E+00    0.510984E-01    0.866017E-01
   ------------------------------------------------------------------------

         :::::::::::::::::::::::::::::::::::::::::::::::::::::
         ::                  THERMODYNAMIC                  ::
         :::::::::::::::::::::::::::::::::::::::::::::::::::::
         :: total free energy         -34.588450943395 Eh   ::
         ::.................................................::
         :: total energy              -34.675052679036 Eh   ::
         :: zero point energy           0.125064201187 Eh   ::
         :: G(RRHO) w/o ZPVE           -0.038462465547 Eh   ::
         :: G(RRHO) contrib.            0.086601735641 Eh   ::
         :::::::::::::::::::::::::::::::::::::::::::::::::::::

           -------------------------------------------------
          | TOTAL ENERGY              -34.675052679036 Eh   |
          | TOTAL ENTHALPY            -34.537352564965 Eh   |
          | TOTAL FREE ENERGY         -34.588450943395 Eh   |
          | GRADIENT NORM               0.000321025046 Eh/α |
          | HOMO-LUMO GAP               1.758663281101 eV   |
           -------------------------------------------------

 * finished run on 2025/10/18 at 05:16:16.741
normal termination of xtb
