                         Program Version 5.0.4 -  RELEASE  -
|  1> ! OPT PBE D3BJ def2-TZVP CPCM(water)
|  2>
|  3> * xyz -1 1
|  4> C     -3.805272   -0.633899   -0.744213
|  5> C     -2.725765    0.163848   -0.784679
|  6> C     -1.417941   -0.360399   -0.226950
|  7> O     -2.615556    1.334415   -1.232105
|  8> H     -3.771032   -1.632013   -0.328945
|  9> H     -4.751097   -0.277481   -1.138318
| 10> H     -1.517078   -1.380915    0.162308
| 11> H     -0.639311   -0.389807   -0.999735
| 12> H     -1.061357    0.262585    0.603150
| 13> *
| 14>
| 15>                          ****END OF INPUT****
 Total Charge           Charge          ....   -1
 Multiplicity           Mult            ....    1
 Number of Electrons    NEL             ....   32
Dispersion correction           -0.005393716
FINAL SINGLE POINT ENERGY      -192.492092996562
Dispersion correction            ... done
Dispersion correction           -0.005343815
FINAL SINGLE POINT ENERGY      -192.496427296279
Dispersion correction            ... done
Dispersion correction           -0.005333959
FINAL SINGLE POINT ENERGY      -192.496829418540
Dispersion correction            ... done
Dispersion correction           -0.005334572
FINAL SINGLE POINT ENERGY      -192.496876273162
Dispersion correction            ... done
Dispersion correction           -0.005336403
FINAL SINGLE POINT ENERGY      -192.496884555205
Dispersion correction            ... done
                    ***********************HURRAY********************

CARTESIAN COORDINATES (ANGSTROEM)
---------------------------------
  C     -3.827604   -0.634648   -0.747362
  C     -2.705186    0.175595   -0.785450
  C     -1.398744   -0.385712   -0.211585
  O     -2.643537    1.376485   -1.260612
  H     -3.788970   -1.642331   -0.330125
  H     -4.784175   -0.280386   -1.143426
  H     -1.498090   -1.410047    0.176593
  H     -0.617844   -0.378458   -0.989937
  H     -1.040260    0.265835    0.602417

 Multiplicity           Mult            ....    1
 Number of Electrons    NEL             ....   32
 Basis Dimension        Dim             ....  154

ORBITAL ENERGIES
----------------

  NO   OCC          E(Eh)            E(eV)
   0   2.0000     -18.652524      -507.5610
   1   2.0000      -9.892364      -269.1849
   2   2.0000      -9.850371      -268.0422
   3   2.0000      -9.812348      -267.0076
   4   2.0000      -0.848477       -23.0882
   5   2.0000      -0.640064       -17.4170
   6   2.0000      -0.576308       -15.6821
   7   2.0000      -0.423115       -11.5135
   8   2.0000      -0.359096        -9.7715
   9   2.0000      -0.353705        -9.6248
  10   2.0000      -0.349296        -9.5048
  11   2.0000      -0.298117        -8.1122
  12   2.0000      -0.279613        -7.6086
  13   2.0000      -0.254884        -6.9357
  14   2.0000      -0.153288        -4.1712
  15   2.0000      -0.133469        -3.6319
  16   0.0000       0.038350         1.0435
  17   0.0000       0.044151         1.2014
  18   0.0000       0.085179         2.3178
  19   0.0000       0.098256         2.6737
  20   0.0000       0.120971         3.2918

MULLIKEN ATOMIC CHARGES
-----------------------
   0 C :   -0.638484
   1 C :    0.196443
   2 C :   -0.385915
   3 O :   -0.648806
   4 H :    0.096285
   5 H :    0.074182
   6 H :    0.097883
   7 H :    0.104071
   8 H :    0.104342
Sum of atomic charges:   -1.0000000

LOEWDIN ATOMIC CHARGES
----------------------
   0 C :   -0.475065
   1 C :   -0.538419
   2 C :   -0.322315
   3 O :   -0.211033
   4 H :    0.101235
   5 H :    0.093446
   6 H :    0.116379
   7 H :    0.117830
   8 H :    0.117942

  Mayer bond orders larger than 0.100000
B(  0-C ,  1-C ) :   1.5478 B(  0-C ,  4-H ) :   0.9446 B(  0-C ,  5-H ) :   0.9713
B(  1-C ,  2-C ) :   0.9249 B(  1-C ,  3-O ) :   1.7072 B(  2-C ,  6-H ) :   0.9438
B(  2-C ,  7-H ) :   0.9583 B(  2-C ,  8-H ) :   0.9582

Dispersion correction           -0.005337165
FINAL SINGLE POINT ENERGY      -192.496885503672

DIPOLE MOMENT
-------------
                                X             Y             Z
Electronic contribution:     -0.39822       2.77356      -1.24124
Nuclear contribution   :      1.27355      -3.90486       1.93146
                        -----------------------------------------
Total Dipole Moment    :      0.87532      -1.13131       0.69022
                        -----------------------------------------
Magnitude (a.u.)       :      1.58822
Magnitude (Debye)      :      4.03694

Rotational constants in cm-1:     0.345460     0.311678     0.169033
Rotational constants in MHz : 10356.623149  9343.873582  5067.466917

                             ****ORCA TERMINATED NORMALLY****
TOTAL RUN TIME: 0 days 0 hours 2 minutes 12 seconds 96 msec
