                         Program Version 5.0.4 -  RELEASE  -
|  1> !OPT PBE D3BJ def2-TZVP CPCM(water)
|  2>
|  3> *xyz -1 1
|  4> C     -4.851962   -2.758241    2.223928
|  5> C     -5.920887   -3.384325    3.054301
|  6> H     -5.113755   -1.727019    1.966360
|  7> H     -3.915192   -2.731893    2.790984
|  8> H     -4.661634   -3.324844    1.306934
|  9> C     -7.214951   -3.766522    2.561984
| 10> H     -5.741385   -3.496113    4.116605
| 11> H     -8.370280   -3.638239    4.347705
| 12> C     -8.298026   -4.281676    3.461247
| 13> H     -9.282450   -4.235484    2.975692
| 14> C     -8.047709   -5.716582    3.911707
| 15> O     -7.470957   -3.576198    1.352526
| 16> H     -7.109002   -5.802891    4.469014
| 17> H     -8.857709   -6.050632    4.567898
| 18> H     -8.002073   -6.398808    3.056438
| 19> *
| 20>
| 21>                          ****END OF INPUT****
 Total Charge           Charge          ....   -1
 Multiplicity           Mult            ....    1
 Number of Electrons    NEL             ....   48
Dispersion correction           -0.011135648
FINAL SINGLE POINT ENERGY      -271.027108793680
Dispersion correction            ... done
Dispersion correction           -0.011133069
FINAL SINGLE POINT ENERGY      -271.035627022351
Dispersion correction            ... done
Dispersion correction           -0.011109903
FINAL SINGLE POINT ENERGY      -271.037463351265
Dispersion correction            ... done
FINAL SINGLE POINT ENERGY      -271.038042570498
FINAL SINGLE POINT ENERGY      -271.038690642528
FINAL SINGLE POINT ENERGY      -271.039396684284
FINAL SINGLE POINT ENERGY      -271.040002149269
FINAL SINGLE POINT ENERGY      -271.040475705791
FINAL SINGLE POINT ENERGY      -271.040752735457
FINAL SINGLE POINT ENERGY      -271.040823582685
Dispersion correction            ... done
Dispersion correction           -0.011012471
FINAL SINGLE POINT ENERGY      -271.040827946388
Dispersion correction            ... done
Dispersion correction           -0.011013718
FINAL SINGLE POINT ENERGY      -271.040848218780
Dispersion correction            ... done
                    ***********************HURRAY********************

CARTESIAN COORDINATES (ANGSTROEM)
---------------------------------
  C     -4.861083   -2.654643    2.212444
  C     -5.976721   -3.121367    3.108865
  H     -5.153576   -1.833261    1.526762
  H     -4.001475   -2.285271    2.793255
  H     -4.490791   -3.465096    1.557817
  C     -7.037199   -3.876367    2.645018
  H     -5.951939   -2.837379    4.164499
  H     -7.902805   -3.870400    4.640916
  C     -8.114896   -4.304550    3.649954
  H     -9.083704   -3.888661    3.315391
  C     -8.249107   -5.827078    3.765292
  O     -7.198865   -4.266168    1.414643
  H     -7.324516   -6.271486    4.167033
  H     -9.079303   -6.118633    4.426677
  H     -8.431992   -6.269107    2.774759

 Multiplicity           Mult            ....    1
 Number of Electrons    NEL             ....   48
 Basis Dimension        Dim             ....  240

ORBITAL ENERGIES
----------------

  NO   OCC          E(Eh)            E(eV)
   0   2.0000     -18.649625      -507.4821
   1   2.0000      -9.879257      -268.8283
   2   2.0000      -9.856478      -268.2084
   3   2.0000      -9.854398      -268.1518
   4   2.0000      -9.851647      -268.0769
   5   2.0000      -9.815583      -267.0956
   6   2.0000      -0.841762       -22.9055
   7   2.0000      -0.672654       -18.3039
   8   2.0000      -0.646592       -17.5947
   9   2.0000      -0.571030       -15.5385
  10   2.0000      -0.513768       -13.9803
  11   2.0000      -0.413434       -11.2501
  12   2.0000      -0.382789       -10.4162
  13   2.0000      -0.376621       -10.2484
  14   2.0000      -0.342817        -9.3285
  15   2.0000      -0.331132        -9.0105
  16   2.0000      -0.326899        -8.8954
  17   2.0000      -0.307150        -8.3580
  18   2.0000      -0.289478        -7.8771
  19   2.0000      -0.274292        -7.4639
  20   2.0000      -0.265290        -7.2189
  21   2.0000      -0.244143        -6.6435
  22   2.0000      -0.149871        -4.0782
  23   2.0000      -0.122281        -3.3274
  24   0.0000       0.030893         0.8406
  25   0.0000       0.043274         1.1776
  26   0.0000       0.056666         1.5420
  27   0.0000       0.067613         1.8398
  28   0.0000       0.079157         2.1540

MULLIKEN ATOMIC CHARGES
-----------------------
   0 C :   -0.379769
   1 C :   -0.396598
   2 H :    0.095489
   3 H :    0.110505
   4 H :    0.092084
   5 C :    0.128552
   6 H :    0.091350
   7 H :    0.077004
   8 C :   -0.168684
   9 H :    0.067347
  10 C :   -0.359409
  11 O :   -0.663034
  12 H :    0.100940
  13 H :    0.115610
  14 H :    0.088615
Sum of atomic charges:   -1.0000000

LOEWDIN ATOMIC CHARGES
----------------------
   0 C :   -0.366180
   1 C :   -0.375075
   2 H :    0.108703
   3 H :    0.117031
   4 H :    0.110416
   5 C :   -0.473171
   6 H :    0.118794
   7 H :    0.130721
   8 C :   -0.290904
   9 H :    0.128530
  10 C :   -0.338833
  11 O :   -0.214460
  12 H :    0.115907
  13 H :    0.115835
  14 H :    0.112685

  Mayer bond orders larger than 0.100000
B(  0-C ,  1-C ) :   0.9972 B(  0-C ,  2-H ) :   0.9603 B(  0-C ,  3-H ) :   0.9706
B(  0-C ,  4-H ) :   0.9614 B(  1-C ,  5-C ) :   1.5588 B(  1-C ,  6-H ) :   0.9514
B(  5-C ,  8-C ) :   0.9839 B(  5-C , 11-O ) :   1.7039 B(  7-H ,  8-C ) :   0.9409
B(  8-C ,  9-H ) :   0.9372 B(  8-C , 10-C ) :   0.9918 B( 10-C , 12-H ) :   0.9675
B( 10-C , 13-H ) :   0.9631 B( 10-C , 14-H ) :   0.9626

Dispersion correction           -0.011012884
FINAL SINGLE POINT ENERGY      -271.040850220007

DIPOLE MOMENT
-------------
                                X             Y             Z
Electronic contribution:     -0.93137       0.41467      -2.32221
Nuclear contribution   :      0.72897      -0.54193       4.02510
                        -----------------------------------------
Total Dipole Moment    :     -0.20240      -0.12726       1.70289
                        -----------------------------------------
Magnitude (a.u.)       :      1.71959
Magnitude (Debye)      :      4.37085

Rotational constants in cm-1:     0.250397     0.067824     0.059311
Rotational constants in MHz :  7506.724100  2033.307556  1778.090339

                             ****ORCA TERMINATED NORMALLY****
TOTAL RUN TIME: 0 days 0 hours 9 minutes 3 seconds 572 msec
