   * xtb version 6.7.1 (edcfbbe) compiled by 'albert@albert-system' on 2024-07-22

   ID    Z sym.   atoms
    1    6 C      1, 2, 4, 6, 8, 10
    2   17 Cl     3
    3    1 H      5, 7, 9, 11
    4    8 O      12

          program call               : xtb xyz.xyz --charge -1 --ohess
          :  Hamiltonian                  GFN2-xTB          :
 * total energy  :   -23.6857900 Eh     change       -0.3697203E-08 Eh
 * total energy  :   -23.7103474 Eh     change       -0.2455748E-01 Eh
 * total energy  :   -23.7126584 Eh     change       -0.2310975E-02 Eh
 * total energy  :   -23.7128187 Eh     change       -0.1602458E-03 Eh
 * total energy  :   -23.7128531 Eh     change       -0.3445231E-04 Eh
 * total energy  :   -23.7128610 Eh     change       -0.7885457E-05 Eh
 * total energy  :   -23.7128622 Eh     change       -0.1183950E-05 Eh
   *** GEOMETRY OPTIMIZATION CONVERGED AFTER 7 ITERATIONS ***

 final structure:
================
12
 xtb: 6.7.1 (edcfbbe)
C           -4.06436390505794       -1.94157445376567        1.92698709487824
C           -3.77531524219651       -2.41936087893548        0.67478641334672
Cl          -7.42369475247641       -3.94846302970333        2.79152501013283
C           -5.20318993168537       -2.36212183350930        2.69046673250567
H           -3.41763802048304       -1.20655019383842        2.39189495020287
C           -4.58789598876024       -3.36188958466974        0.05623933006960
H           -2.89341865943486       -2.05470778399719        0.15412232944145
C           -5.70905216232573       -3.81465752918651        0.73773770509187
H           -4.35798711047452       -3.73789477503288       -0.93248106078598
C           -5.99370785225289       -3.33328982215946        1.99053777560607
H           -6.36536910292262       -4.54940704960794        0.28617136564878
O           -5.46659727192986       -1.92557806559408        3.83366935386188

          :  Hamiltonian                  GFN2-xTB          :
         :: gradient norm              0.000367551232 Eh/a0 ::
         :: HOMO-LUMO gap              3.201037722437 eV    ::
         :: SCC energy               -24.007723957923 Eh    ::
         :: -> dispersion             -0.011616489447 Eh    ::
         :: repulsion energy           0.294861776516 Eh    ::

    * Orbital Energies and Occupations

         #    Occupation            Energy/Eh            Energy/eV
      -------------------------------------------------------------
         1        2.0000           -0.8952617             -24.3613
       ...           ...                  ...                  ...
         9        2.0000           -0.3410521              -9.2805
        10        2.0000           -0.3376704              -9.1885
        11        2.0000           -0.3255119              -8.8576
        12        2.0000           -0.3200411              -8.7088
        13        2.0000           -0.3073376              -8.3631
        14        2.0000           -0.2783574              -7.5745
        15        2.0000           -0.2772131              -7.5434
        16        2.0000           -0.2751039              -7.4860
        17        2.0000           -0.2744033              -7.4669
        18        2.0000           -0.2514748              -6.8430
        19        2.0000           -0.2301677              -6.2632
        20        2.0000           -0.1803448              -4.9074
        21        2.0000           -0.1715265              -4.6675 (HOMO)
        22                         -0.0538906              -1.4664 (LUMO)
        23                         -0.0275610              -0.7500
        24                          0.0237226               0.6455
        25                          0.0819335               2.2295
        26                          0.1875806               5.1043
        27                          0.1903022               5.1784
        28                          0.1909071               5.1948
        29                          0.2036722               5.5422
        30                          0.2721334               7.4051
        31                          0.2901363               7.8950
        32                          0.3082403               8.3876
       ...                                ...                  ...
        41                          0.8596452              23.3921
      -------------------------------------------------------------
                  HL-Gap            0.1176359 Eh            3.2010 eV

     #   Z          covCN         q      C6AA      α(0)
     1   6 C        2.923    -0.101    30.551     9.064
     2   6 C        2.912    -0.050    29.240     8.867
     3  17 Cl       0.962    -0.280   108.086    15.905
     4   6 C        2.852     0.185    24.052     8.038
     5   1 H        0.925    -0.007     3.184     2.790
     6   6 C        2.920    -0.085    30.123     9.000
     7   1 H        0.925    -0.025     3.523     2.935
     8   6 C        2.956    -0.055    29.371     8.889
     9   1 H        0.925    -0.026     3.556     2.949
    10   6 C        2.891     0.025    27.439     8.588
    11   1 H        0.925    -0.004     3.128     2.766
    12   8 O        0.857    -0.577    25.554     6.778

Wiberg/Mayer (AO) data.
largest (>0.10) Wiberg bond orders for each atom

     #   Z sym  total        # sym  WBO       # sym  WBO       # sym  WBO
 ---------------------------------------------------------------------------
     1   6 C    3.978 --     2 C    1.521     4 C    1.188     5 H    0.971
                            12 O    0.107
     2   6 C    3.988 --     1 C    1.521     6 C    1.383     7 H    0.969
     3  17 Cl   1.012 --    10 C    0.900
     4   6 C    3.974 --    12 O    1.497     1 C    1.188    10 C    1.181
     5   1 H    1.000 --     1 C    0.971
     6   6 C    3.969 --     8 C    1.391     2 C    1.383     9 H    0.972
     7   1 H    0.999 --     2 C    0.969
     8   6 C    3.988 --    10 C    1.481     6 C    1.391    11 H    0.969
     9   1 H    0.999 --     6 C    0.972
    10   6 C    3.852 --     8 C    1.481     4 C    1.181     3 Cl   0.900
                            12 O    0.112
    11   1 H    1.000 --     8 C    0.969
    12   8 O    1.833 --     4 C    1.497    10 C    0.112     1 C    0.107
 ---------------------------------------------------------------------------

molecular dipole:
                 x           y           z       tot (Debye)
 q only:       10.694       5.073      -5.135
   full:       10.968       5.149      -5.363      33.679

 projected vibrational frequencies (cm⁻¹)
eigval :       -0.00    -0.00    -0.00     0.00     0.00     0.00
eigval :      128.72   202.89   239.13   346.18   389.20   507.17
eigval :      511.83   531.87   646.39   660.47   746.32   809.62
eigval :      844.49   875.18   903.18   991.21  1077.52  1134.53
eigval :     1169.68  1210.81  1300.58  1377.85  1461.50  1515.15
eigval :     1566.98  1625.69  2978.38  3021.45  3032.57  3043.28

   temp. (K)  partition function   enthalpy   heat capacity  entropy
                                   cal/mol     cal/K/mol   cal/K/mol   J/K/mol
 298.15  VIB   11.8                 2406.601     18.949     12.962
         ROT  0.392E+06              888.752      2.981     28.574
         INT  0.461E+07             3295.353     21.930     41.536
         TR   0.139E+28             1481.254      4.968     40.425
         TOT                        4776.6068    26.8977    81.9609   342.9245

       T/K    H(0)-H(T)+PV         H(T)/Eh          T*S/Eh         G(T)/Eh
   ------------------------------------------------------------------------
    298.15    0.761201E-02    0.870057E-01    0.389423E-01    0.480635E-01
   ------------------------------------------------------------------------

         :::::::::::::::::::::::::::::::::::::::::::::::::::::
         ::                  THERMODYNAMIC                  ::
         :::::::::::::::::::::::::::::::::::::::::::::::::::::
         :: total free energy         -23.664798707933 Eh   ::
         ::.................................................::
         :: total energy              -23.712862181426 Eh   ::
         :: zero point energy           0.079393742352 Eh   ::
         :: G(RRHO) w/o ZPVE           -0.031330268859 Eh   ::
         :: G(RRHO) contrib.            0.048063473493 Eh   ::
         :::::::::::::::::::::::::::::::::::::::::::::::::::::

           -------------------------------------------------
          | TOTAL ENERGY              -23.712862181426 Eh   |
          | TOTAL ENTHALPY            -23.625856431583 Eh   |
          | TOTAL FREE ENERGY         -23.664798707933 Eh   |
          | GRADIENT NORM               0.000367444080 Eh/α |
          | HOMO-LUMO GAP               3.201036658763 eV   |
           -------------------------------------------------

 * finished run on 2025/10/18 at 06:27:23.813
