   * xtb version 6.7.1 (edcfbbe) compiled by 'albert@albert-system' on 2024-07-22

   ID    Z sym.   atoms
    1    6 C      1, 2, 6
    2    1 H      3-5, 7, 8, 12, 13
    3    8 O      9-11

          program call               : xtb tb_lite_results_shiftn0p1_gp601_b0_rot270_complex.xyz --ohess --chrg -1 --alpb water
      * Solvation model:               ALPB
        Solvent                        water
        Solvent mass                       1.8000E+01 g/mol
          :  Hamiltonian                  GFN2-xTB          :
 * total energy  :   -22.5266719 Eh     change       -0.5223555E-10 Eh
 * total energy  :   -22.5292763 Eh     change       -0.2604402E-02 Eh
 * total energy  :   -22.5294713 Eh     change       -0.1949902E-03 Eh
 * total energy  :   -22.5295013 Eh     change       -0.2998467E-04 Eh
 * total energy  :   -22.5295780 Eh     change       -0.7678057E-04 Eh
 * total energy  :   -22.5296041 Eh     change       -0.2609761E-04 Eh
 * total energy  :   -22.5296361 Eh     change       -0.3192710E-04 Eh
 * total energy  :   -22.5296539 Eh     change       -0.1788130E-04 Eh
 * total energy  :   -22.5296976 Eh     change       -0.4367649E-04 Eh
 * total energy  :   -22.5297191 Eh     change       -0.2151266E-04 Eh
 * total energy  :   -22.5298649 Eh     change       -0.1893548E-04 Eh
 * total energy  :   -22.5298802 Eh     change       -0.1531655E-04 Eh
 * total energy  :   -22.5298953 Eh     change       -0.1502778E-04 Eh
 * total energy  :   -22.5298987 Eh     change       -0.3377534E-05 Eh
 * total energy  :   -22.5299305 Eh     change       -0.3186555E-04 Eh
 * total energy  :   -22.5299393 Eh     change       -0.8801512E-05 Eh
 * total energy  :   -22.5299365 Eh     change        0.2828718E-05 Eh
 * total energy  :   -22.5299451 Eh     change       -0.8578572E-05 Eh
 * total energy  :   -22.5299478 Eh     change       -0.2781655E-05 Eh
   *** GEOMETRY OPTIMIZATION CONVERGED AFTER 25 ITERATIONS ***

 final structure:
================
13
 xtb: 6.7.1 (edcfbbe)
C           -5.74528104522868       -3.86807912333270        0.41408702736678
C           -6.88975286018036       -4.37200908240577        1.27713399903759
H           -5.01840387032810       -4.66270003333584        0.26241257797061
H           -6.12453117978659       -3.57498384160713       -0.56211436458609
H           -5.25907547234121       -3.01745619609947        0.88493699612952
C           -7.67039000038296       -5.54328803363604        0.64227794625392
H           -6.53086973740192       -4.72343908200280        2.24732044800409
H           -7.62030409665891       -3.58105658611031        1.46368360350964
O           -7.34862672348752       -5.95352579886413       -0.48725946835148
O           -8.61363551402543       -6.00887968619506        1.33496649412007
O           -9.84451839860376       -7.91649557057980       -0.17615472065121
H           -9.46767944561133       -7.25489541708646        0.44783089826997
H           -9.26050699253018       -7.87117849307254       -0.94160474637553

          :  Hamiltonian                  GFN2-xTB          :
         :: gradient norm              0.000848846035 Eh/a0 ::
         :: HOMO-LUMO gap              5.149225962867 eV    ::
         :: SCC energy               -22.723834992235 Eh    ::
         :: -> dispersion             -0.006628566638 Eh    ::
         :: -> Gsolv                  -0.110115807230 Eh    ::
         :: repulsion energy           0.193887143356 Eh    ::

    * Orbital Energies and Occupations

         #    Occupation            Energy/Eh            Energy/eV
      -------------------------------------------------------------
         1        2.0000           -0.6721631             -18.2905
       ...           ...                  ...                  ...
         7        2.0000           -0.5321391             -14.4802
         8        2.0000           -0.5203202             -14.1586
         9        2.0000           -0.5148912             -14.0109
        10        2.0000           -0.4995733             -13.5941
        11        2.0000           -0.4831902             -13.1483
        12        2.0000           -0.4815752             -13.1043
        13        2.0000           -0.4618351             -12.5672
        14        2.0000           -0.4472373             -12.1699
        15        2.0000           -0.4339360             -11.8080
        16        2.0000           -0.4183691             -11.3844
        17        2.0000           -0.3994979             -10.8709
        18        2.0000           -0.3826529             -10.4125
        19        2.0000           -0.3628920              -9.8748 (HOMO)
        20                         -0.1736614              -4.7256 (LUMO)
        21                          0.1076819               2.9302
        22                          0.1397780               3.8036
        23                          0.1423247               3.8729
        24                          0.1653372               4.4991
        25                          0.1708638               4.6494
        26                          0.1914831               5.2105
        27                          0.2638016               7.1784
        28                          0.2828253               7.6961
        29                          0.2851100               7.7582
        30                          0.4285613              11.6617
        31                          0.6129688              16.6797
      -------------------------------------------------------------
                  HL-Gap            0.1892305 Eh            5.1492 eV

     #   Z          covCN         q      C6AA      α(0)
     1   6 C        3.751    -0.098    22.427     6.754
     2   6 C        3.798    -0.092    22.257     6.717
     3   1 H        0.925     0.034     2.524     2.484
     4   1 H        0.925     0.035     2.512     2.479
     5   1 H        0.925     0.047     2.359     2.402
     6   6 C        2.685     0.361    20.872     7.476
     7   1 H        0.924     0.029     2.594     2.519
     8   1 H        0.924     0.030     2.588     2.516
     9   8 O        0.856    -0.635    26.987     6.965
    10   8 O        0.856    -0.666    27.787     7.067
    11   8 O        1.607    -0.683    27.266     7.047
    12   1 H        0.802     0.308     0.697     1.311
    13   1 H        0.805     0.327     0.644     1.261

Wiberg/Mayer (AO) data.
largest (>0.10) Wiberg bond orders for each atom

     #   Z sym  total        # sym  WBO       # sym  WBO       # sym  WBO
 ---------------------------------------------------------------------------
     1   6 C    3.997 --     2 C    1.024     3 H    0.988     4 H    0.988
                             5 H    0.987
     2   6 C    3.995 --     1 C    1.024     7 H    0.969     8 H    0.967
                             6 C    0.936
     3   1 H    0.999 --     1 C    0.988
     4   1 H    0.999 --     1 C    0.988
     5   1 H    0.998 --     1 C    0.987
     6   6 C    3.927 --     9 O    1.521    10 O    1.445     2 C    0.936
     7   1 H    0.999 --     2 C    0.969
     8   1 H    0.999 --     2 C    0.967
     9   8 O    1.808 --     6 C    1.521    10 O    0.208
    10   8 O    1.801 --     6 C    1.445     9 O    0.208
    11   8 O    1.766 --    13 H    0.891    12 H    0.844
    12   1 H    0.905 --    11 O    0.844
    13   1 H    0.893 --    11 O    0.891
 ---------------------------------------------------------------------------

molecular dipole:
                 x           y           z       tot (Debye)
 q only:       16.135      12.235      -0.783
   full:       16.363      12.484      -0.699      52.343

 projected vibrational frequencies (cm⁻¹)
eigval :       -0.00    -0.00     0.00     0.00     0.00     0.00
eigval :      -30.72    24.63    25.99   164.36   170.45   188.57
eigval :      247.47   380.93   510.00   563.29   627.59   725.83
eigval :      818.60   857.80  1032.75  1050.48  1112.10  1228.35
eigval :     1290.63  1345.37  1395.64  1462.69  1480.22  1504.61
eigval :     1521.75  1637.48  2950.36  2968.38  3021.95  3027.74
eigval :     3039.53  3115.76  3589.31

   temp. (K)  partition function   enthalpy   heat capacity  entropy
                                   cal/mol     cal/K/mol   cal/K/mol   J/K/mol
 298.15  VIB   952.                 3348.343     18.131     21.200
         ROT  0.201E+06              888.752      2.981     27.246
         INT  0.191E+09             4237.095     21.112     48.446
         TR   0.841E+27             1481.254      4.968     39.422
         TOT                        5718.3493    26.0797    87.8681   367.6401

       T/K    H(0)-H(T)+PV         H(T)/Eh          T*S/Eh         G(T)/Eh
   ------------------------------------------------------------------------
    298.15    0.911277E-02    0.107258E+00    0.417490E-01    0.655087E-01
   ------------------------------------------------------------------------

         :::::::::::::::::::::::::::::::::::::::::::::::::::::
         ::                  THERMODYNAMIC                  ::
         :::::::::::::::::::::::::::::::::::::::::::::::::::::
         :: total free energy         -22.464439167146 Eh   ::
         ::.................................................::
         :: total energy              -22.529947848762 Eh   ::
         :: zero point energy           0.098144875339 Eh   ::
         :: G(RRHO) w/o ZPVE           -0.032636193724 Eh   ::
         :: G(RRHO) contrib.            0.065508681616 Eh   ::
         :::::::::::::::::::::::::::::::::::::::::::::::::::::

           -------------------------------------------------
          | TOTAL ENERGY              -22.529947848762 Eh   |
          | TOTAL ENTHALPY            -22.422690203760 Eh   |
          | TOTAL FREE ENERGY         -22.464439167146 Eh   |
          | GRADIENT NORM               0.000848653159 Eh/α |
          | HOMO-LUMO GAP               5.149225349700 eV   |
           -------------------------------------------------

 * finished run on 2025/10/18 at 03:30:51.459
normal termination of xtb
