   * xtb version 6.7.1 (edcfbbe) compiled by 'albert@albert-system' on 2024-07-22

   ID    Z sym.   atoms
    1    6 C      1, 2, 6
    2    1 H      3-5, 7, 8, 12, 13
    3    8 O      9-11

          program call               : xtb tb_lite_results_shiftn0p15_gp479_b0_rot90_complex.xyz --ohess --chrg -1 --alpb water
      * Solvation model:               ALPB
        Solvent                        water
        Solvent mass                       1.8000E+01 g/mol
          :  Hamiltonian                  GFN2-xTB          :
 * total energy  :   -22.5262845 Eh     change       -0.2156852E-10 Eh
 * total energy  :   -22.5290952 Eh     change       -0.2810735E-02 Eh
 * total energy  :   -22.5293792 Eh     change       -0.2839883E-03 Eh
 * total energy  :   -22.5294434 Eh     change       -0.6421604E-04 Eh
 * total energy  :   -22.5294958 Eh     change       -0.5234507E-04 Eh
 * total energy  :   -22.5295226 Eh     change       -0.2684600E-04 Eh
 * total energy  :   -22.5295658 Eh     change       -0.4316371E-04 Eh
 * total energy  :   -22.5296112 Eh     change       -0.4544679E-04 Eh
 * total energy  :   -22.5296486 Eh     change       -0.3736067E-04 Eh
 * total energy  :   -22.5296748 Eh     change       -0.2615395E-04 Eh
 * total energy  :   -22.5297417 Eh     change       -0.1338271E-04 Eh
 * total energy  :   -22.5297448 Eh     change       -0.3145031E-05 Eh
 * total energy  :   -22.5297645 Eh     change       -0.1970384E-04 Eh
 * total energy  :   -22.5297810 Eh     change       -0.1642342E-04 Eh
 * total energy  :   -22.5297992 Eh     change       -0.1819800E-04 Eh
 * total energy  :   -22.5298054 Eh     change       -0.6204531E-05 Eh
 * total energy  :   -22.5298125 Eh     change       -0.7149230E-05 Eh
 * total energy  :   -22.5298141 Eh     change       -0.1617284E-05 Eh
 * total energy  :   -22.5298156 Eh     change       -0.1459548E-05 Eh
   *** GEOMETRY OPTIMIZATION CONVERGED AFTER 21 ITERATIONS ***

 final structure:
================
13
 xtb: 6.7.1 (edcfbbe)
C           -5.67468734213127       -3.82030975429537        0.57028064974235
C           -6.92824247979035       -4.38146336758848        1.22034475761584
H           -4.95267494061491       -4.61820991909401        0.41234476284298
H           -5.92048122888292       -3.39977853587814       -0.40211985495004
H           -5.23267463807352       -3.05013120410815        1.19733820694805
C           -7.61757252527547       -5.48330398172087        0.38585449930245
H           -6.70325519467534       -4.82507214858495        2.19326260477937
H           -7.67435474200577       -3.59939450983086        1.38018049573941
O           -7.09942590085676       -5.81843315278799       -0.70567329884684
O           -8.66183603757965       -5.97738069221564        0.86090083835116
O           -8.62795808264106       -7.81271645669149       -1.77581130921926
H           -8.01700200462303       -7.10384145489427       -1.47094486776188
H           -9.29171477722667       -7.86341377341011       -1.07918022082164

          :  Hamiltonian                  GFN2-xTB          :
         :: gradient norm              0.000435380606 Eh/a0 ::
         :: HOMO-LUMO gap              5.148512281779 eV    ::
         :: SCC energy               -22.723729617434 Eh    ::
         :: -> dispersion             -0.006638090735 Eh    ::
         :: -> Gsolv                  -0.110146371891 Eh    ::
         :: repulsion energy           0.193914015909 Eh    ::

    * Orbital Energies and Occupations

         #    Occupation            Energy/Eh            Energy/eV
      -------------------------------------------------------------
         1        2.0000           -0.6720844             -18.2883
       ...           ...                  ...                  ...
         7        2.0000           -0.5324724             -14.4893
         8        2.0000           -0.5202426             -14.1565
         9        2.0000           -0.5137058             -13.9786
        10        2.0000           -0.4980078             -13.5515
        11        2.0000           -0.4846146             -13.1870
        12        2.0000           -0.4828039             -13.1378
        13        2.0000           -0.4600455             -12.5185
        14        2.0000           -0.4477685             -12.1844
        15        2.0000           -0.4340326             -11.8106
        16        2.0000           -0.4184864             -11.3876
        17        2.0000           -0.3991682             -10.8619
        18        2.0000           -0.3825599             -10.4100
        19        2.0000           -0.3626212              -9.8674 (HOMO)
        20                         -0.1734166              -4.7189 (LUMO)
        21                          0.1098770               2.9899
        22                          0.1340407               3.6474
        23                          0.1433575               3.9010
        24                          0.1653127               4.4984
        25                          0.1717002               4.6722
        26                          0.1914348               5.2092
        27                          0.2643096               7.1922
        28                          0.2825161               7.6877
        29                          0.2860265               7.7832
        30                          0.4319324              11.7535
        31                          0.6106269              16.6160
      -------------------------------------------------------------
                  HL-Gap            0.1892046 Eh            5.1485 eV

     #   Z          covCN         q      C6AA      α(0)
     1   6 C        3.751    -0.097    22.410     6.751
     2   6 C        3.798    -0.092    22.264     6.718
     3   1 H        0.925     0.034     2.528     2.486
     4   1 H        0.925     0.034     2.531     2.488
     5   1 H        0.925     0.047     2.363     2.404
     6   6 C        2.685     0.361    20.871     7.476
     7   1 H        0.924     0.030     2.583     2.513
     8   1 H        0.924     0.030     2.585     2.514
     9   8 O        0.856    -0.643    27.201     6.992
    10   8 O        0.856    -0.658    27.576     7.041
    11   8 O        1.607    -0.683    27.260     7.047
    12   1 H        0.802     0.309     0.695     1.309
    13   1 H        0.805     0.327     0.645     1.261

Wiberg/Mayer (AO) data.
largest (>0.10) Wiberg bond orders for each atom

     #   Z sym  total        # sym  WBO       # sym  WBO       # sym  WBO
 ---------------------------------------------------------------------------
     1   6 C    3.997 --     2 C    1.024     4 H    0.988     3 H    0.988
                             5 H    0.986
     2   6 C    3.995 --     1 C    1.024     8 H    0.968     7 H    0.968
                             6 C    0.936
     3   1 H    0.999 --     1 C    0.988
     4   1 H    0.999 --     1 C    0.988
     5   1 H    0.998 --     1 C    0.986
     6   6 C    3.927 --    10 O    1.497     9 O    1.468     2 C    0.936
     7   1 H    0.999 --     2 C    0.968
     8   1 H    0.999 --     2 C    0.968
     9   8 O    1.827 --     6 C    1.468    10 O    0.208
    10   8 O    1.781 --     6 C    1.497     9 O    0.208
    11   8 O    1.766 --    13 H    0.891    12 H    0.844
    12   1 H    0.904 --    11 O    0.844
    13   1 H    0.893 --    11 O    0.891
 ---------------------------------------------------------------------------

molecular dipole:
                 x           y           z       tot (Debye)
 q only:       15.163      12.023       0.809
   full:       15.200      12.256       1.105      49.708

 projected vibrational frequencies (cm⁻¹)
eigval :       -0.00    -0.00    -0.00    -0.00     0.00     0.00
eigval :      -21.77    24.43    41.12   154.29   169.15   194.89
eigval :      278.79   379.91   494.28   563.96   633.54   721.90
eigval :      818.99   857.46  1032.72  1050.89  1112.31  1229.35
eigval :     1294.06  1347.36  1397.02  1462.69  1480.65  1505.31
eigval :     1520.67  1633.82  2950.13  2967.76  3021.25  3027.26
eigval :     3039.35  3121.00  3594.42

   temp. (K)  partition function   enthalpy   heat capacity  entropy
                                   cal/mol     cal/K/mol   cal/K/mol   J/K/mol
 298.15  VIB   613.                 3313.629     18.347     20.981
         ROT  0.216E+06              888.752      2.981     27.395
         INT  0.133E+09             4202.381     21.328     48.376
         TR   0.841E+27             1481.254      4.968     39.422
         TOT                        5683.6351    26.2963    87.7975   367.3447

       T/K    H(0)-H(T)+PV         H(T)/Eh          T*S/Eh         G(T)/Eh
   ------------------------------------------------------------------------
    298.15    0.905745E-02    0.107294E+00    0.417154E-01    0.655783E-01
   ------------------------------------------------------------------------

         :::::::::::::::::::::::::::::::::::::::::::::::::::::
         ::                  THERMODYNAMIC                  ::
         :::::::::::::::::::::::::::::::::::::::::::::::::::::
         :: total free energy         -22.464237333906 Eh   ::
         ::.................................................::
         :: total energy              -22.529815600454 Eh   ::
         :: zero point energy           0.098236233163 Eh   ::
         :: G(RRHO) w/o ZPVE           -0.032657966615 Eh   ::
         :: G(RRHO) contrib.            0.065578266548 Eh   ::
         :::::::::::::::::::::::::::::::::::::::::::::::::::::

           -------------------------------------------------
          | TOTAL ENERGY              -22.529815600454 Eh   |
          | TOTAL ENTHALPY            -22.422521918185 Eh   |
          | TOTAL FREE ENERGY         -22.464237333906 Eh   |
          | GRADIENT NORM               0.000435466156 Eh/α |
          | HOMO-LUMO GAP               5.148518239024 eV   |
           -------------------------------------------------

 * finished run on 2025/10/18 at 03:30:56.794
normal termination of xtb
