   * xtb version 6.7.1 (edcfbbe) compiled by 'albert@albert-system' on 2024-07-22

   ID    Z sym.   atoms
    1    6 C      1, 2, 6
    2    1 H      3-5, 7, 8, 12, 13
    3    8 O      9-11

          program call               : xtb tb_lite_results_shiftn0p05_gp601_b0_rot270_complex.xyz --ohess --chrg -1 --alpb water
      * Solvation model:               ALPB
        Solvent                        water
        Solvent mass                       1.8000E+01 g/mol
          :  Hamiltonian                  GFN2-xTB          :
 * total energy  :   -22.5268321 Eh     change       -0.3833023E-10 Eh
 * total energy  :   -22.5292565 Eh     change       -0.2424401E-02 Eh
 * total energy  :   -22.5294542 Eh     change       -0.1976373E-03 Eh
 * total energy  :   -22.5294900 Eh     change       -0.3580555E-04 Eh
 * total energy  :   -22.5295710 Eh     change       -0.8102018E-04 Eh
 * total energy  :   -22.5295943 Eh     change       -0.2331826E-04 Eh
 * total energy  :   -22.5296150 Eh     change       -0.2064033E-04 Eh
 * total energy  :   -22.5296519 Eh     change       -0.3697822E-04 Eh
 * total energy  :   -22.5296725 Eh     change       -0.2054803E-04 Eh
 * total energy  :   -22.5296981 Eh     change       -0.2561611E-04 Eh
 * total energy  :   -22.5298889 Eh     change       -0.2371638E-04 Eh
 * total energy  :   -22.5298883 Eh     change        0.6209156E-06 Eh
 * total energy  :   -22.5299335 Eh     change       -0.4522335E-04 Eh
 * total energy  :   -22.5299356 Eh     change       -0.2028647E-05 Eh
 * total energy  :   -22.5299477 Eh     change       -0.1218480E-04 Eh
 * total energy  :   -22.5299536 Eh     change       -0.5898348E-05 Eh
 * total energy  :   -22.5299628 Eh     change       -0.9212154E-05 Eh
 * total energy  :   -22.5299732 Eh     change       -0.1031276E-04 Eh
 * total energy  :   -22.5299772 Eh     change       -0.4085982E-05 Eh
   *** GEOMETRY OPTIMIZATION CONVERGED AFTER 28 ITERATIONS ***

 final structure:
================
13
 xtb: 6.7.1 (edcfbbe)
C           -5.75436173545488       -3.87811401537756        0.39231916587004
C           -6.89646395506526       -4.37228827251474        1.26425571692776
H           -5.04764904277229       -4.68588955577277        0.21567454305784
H           -6.14135768258090       -3.55957491127722       -0.57291947241405
H           -5.24201987826891       -3.04684817260215        0.87049970492842
C           -7.69748098541582       -5.53077308096949        0.63091579888704
H           -6.53343343912523       -4.73231410197334        2.22974983265442
H           -7.61568869214789       -3.57304357179914        1.46056568670941
O           -7.41821723648242       -5.91027876803644       -0.52039174045918
O           -8.60915936616963       -6.02035095101311        1.34866555469852
O           -9.81405171607941       -7.96263557728084       -0.13980655279793
H           -9.45279568189122       -7.28289507011413        0.47439872859739
H           -9.23024934605572       -7.91729639280015       -0.90576369690415

          :  Hamiltonian                  GFN2-xTB          :
         :: gradient norm              0.000872741301 Eh/a0 ::
         :: HOMO-LUMO gap              5.149400893012 eV    ::
         :: SCC energy               -22.723691531928 Eh    ::
         :: -> dispersion             -0.006632157986 Eh    ::
         :: -> Gsolv                  -0.110096572073 Eh    ::
         :: repulsion energy           0.193714284641 Eh    ::

    * Orbital Energies and Occupations

         #    Occupation            Energy/Eh            Energy/eV
      -------------------------------------------------------------
         1        2.0000           -0.6721964             -18.2914
       ...           ...                  ...                  ...
         7        2.0000           -0.5320904             -14.4789
         8        2.0000           -0.5203148             -14.1585
         9        2.0000           -0.5149167             -14.0116
        10        2.0000           -0.4995211             -13.5927
        11        2.0000           -0.4830827             -13.1453
        12        2.0000           -0.4815615             -13.1040
        13        2.0000           -0.4618138             -12.5666
        14        2.0000           -0.4472812             -12.1711
        15        2.0000           -0.4339177             -11.8075
        16        2.0000           -0.4182281             -11.3806
        17        2.0000           -0.3995375             -10.8720
        18        2.0000           -0.3826995             -10.4138
        19        2.0000           -0.3628661              -9.8741 (HOMO)
        20                         -0.1736291              -4.7247 (LUMO)
        21                          0.1075836               2.9275
        22                          0.1394161               3.7937
        23                          0.1421026               3.8668
        24                          0.1651284               4.4934
        25                          0.1707457               4.6462
        26                          0.1913483               5.2069
        27                          0.2635116               7.1705
        28                          0.2823855               7.6841
        29                          0.2847397               7.7482
        30                          0.4286011              11.6628
        31                          0.6131998              16.6860
      -------------------------------------------------------------
                  HL-Gap            0.1892370 Eh            5.1494 eV

     #   Z          covCN         q      C6AA      α(0)
     1   6 C        3.751    -0.098    22.426     6.753
     2   6 C        3.798    -0.092    22.257     6.717
     3   1 H        0.925     0.034     2.530     2.487
     4   1 H        0.925     0.036     2.506     2.476
     5   1 H        0.925     0.047     2.359     2.402
     6   6 C        2.685     0.361    20.872     7.476
     7   1 H        0.924     0.029     2.597     2.520
     8   1 H        0.924     0.030     2.587     2.515
     9   8 O        0.856    -0.635    26.983     6.964
    10   8 O        0.856    -0.665    27.782     7.067
    11   8 O        1.607    -0.683    27.269     7.048
    12   1 H        0.802     0.308     0.697     1.311
    13   1 H        0.805     0.327     0.644     1.261

Wiberg/Mayer (AO) data.
largest (>0.10) Wiberg bond orders for each atom

     #   Z sym  total        # sym  WBO       # sym  WBO       # sym  WBO
 ---------------------------------------------------------------------------
     1   6 C    3.997 --     2 C    1.024     3 H    0.988     4 H    0.988
                             5 H    0.987
     2   6 C    3.995 --     1 C    1.024     7 H    0.969     8 H    0.967
                             6 C    0.936
     3   1 H    0.999 --     1 C    0.988
     4   1 H    0.999 --     1 C    0.988
     5   1 H    0.998 --     1 C    0.987
     6   6 C    3.927 --     9 O    1.521    10 O    1.445     2 C    0.936
     7   1 H    0.999 --     2 C    0.969
     8   1 H    0.999 --     2 C    0.967
     9   8 O    1.808 --     6 C    1.521    10 O    0.208
    10   8 O    1.801 --     6 C    1.445     9 O    0.208
    11   8 O    1.766 --    13 H    0.891    12 H    0.844
    12   1 H    0.905 --    11 O    0.844
    13   1 H    0.893 --    11 O    0.891
 ---------------------------------------------------------------------------

molecular dipole:
                 x           y           z       tot (Debye)
 q only:       16.183      12.221      -0.778
   full:       16.409      12.474      -0.697      52.420

 projected vibrational frequencies (cm⁻¹)
eigval :       -0.00    -0.00    -0.00     0.00     0.00     0.00
eigval :      -11.45    50.24    57.89   168.66   189.79   246.13
eigval :      254.01   418.10   509.41   564.27   628.83   744.09
eigval :      819.39   857.96  1033.06  1050.66  1111.95  1228.51
eigval :     1290.94  1345.73  1396.09  1463.01  1480.38  1505.13
eigval :     1531.16  1638.13  2948.91  2967.55  3019.85  3026.52
eigval :     3038.46  3111.25  3585.40

   temp. (K)  partition function   enthalpy   heat capacity  entropy
                                   cal/mol     cal/K/mol   cal/K/mol   J/K/mol
 298.15  VIB  0.336E+04             3735.332     19.888     24.899
         ROT  0.201E+06              888.752      2.981     27.243
         INT  0.674E+09             4624.084     22.869     52.142
         TR   0.841E+27             1481.254      4.968     39.422
         TOT                        6105.3378    27.8373    91.5639   383.1033

       T/K    H(0)-H(T)+PV         H(T)/Eh          T*S/Eh         G(T)/Eh
   ------------------------------------------------------------------------
    298.15    0.972948E-02    0.108358E+00    0.435050E-01    0.648530E-01
   ------------------------------------------------------------------------

         :::::::::::::::::::::::::::::::::::::::::::::::::::::
         ::                  THERMODYNAMIC                  ::
         :::::::::::::::::::::::::::::::::::::::::::::::::::::
         :: total free energy         -22.465124269370 Eh   ::
         ::.................................................::
         :: total energy              -22.529977243303 Eh   ::
         :: zero point energy           0.098628451571 Eh   ::
         :: G(RRHO) w/o ZPVE           -0.033775477638 Eh   ::
         :: G(RRHO) contrib.            0.064852973933 Eh   ::
         :::::::::::::::::::::::::::::::::::::::::::::::::::::

           -------------------------------------------------
          | TOTAL ENERGY              -22.529977243303 Eh   |
          | TOTAL ENTHALPY            -22.421619316625 Eh   |
          | TOTAL FREE ENERGY         -22.465124269370 Eh   |
          | GRADIENT NORM               0.000872715003 Eh/α |
          | HOMO-LUMO GAP               5.149400802717 eV   |
           -------------------------------------------------

 * finished run on 2025/10/18 at 03:30:58.897
normal termination of xtb
