   * xtb version 6.7.1 (edcfbbe) compiled by 'albert@albert-system' on 2024-07-22

   ID    Z sym.   atoms
    1    6 C      1, 2, 6
    2    1 H      3-5, 7, 8, 12, 13
    3    8 O      9-11

          program call               : xtb tb_lite_results_shiftn0p1_gp479_b0_rot90_complex.xyz --ohess --chrg -1 --alpb water
      * Solvation model:               ALPB
        Solvent                        water
        Solvent mass                       1.8000E+01 g/mol
          :  Hamiltonian                  GFN2-xTB          :
 * total energy  :   -22.5266572 Eh     change       -0.1069012E-10 Eh
 * total energy  :   -22.5291233 Eh     change       -0.2466051E-02 Eh
 * total energy  :   -22.5293725 Eh     change       -0.2492191E-03 Eh
 * total energy  :   -22.5294301 Eh     change       -0.5761111E-04 Eh
 * total energy  :   -22.5294740 Eh     change       -0.4394766E-04 Eh
 * total energy  :   -22.5295200 Eh     change       -0.4595143E-04 Eh
 * total energy  :   -22.5295586 Eh     change       -0.3865359E-04 Eh
 * total energy  :   -22.5295927 Eh     change       -0.3410723E-04 Eh
 * total energy  :   -22.5296200 Eh     change       -0.2724140E-04 Eh
 * total energy  :   -22.5296558 Eh     change       -0.3576701E-04 Eh
 * total energy  :   -22.5297269 Eh     change       -0.1308437E-04 Eh
 * total energy  :   -22.5297498 Eh     change       -0.2286437E-04 Eh
 * total energy  :   -22.5297614 Eh     change       -0.1161410E-04 Eh
 * total energy  :   -22.5297768 Eh     change       -0.1545446E-04 Eh
 * total energy  :   -22.5297959 Eh     change       -0.1908047E-04 Eh
 * total energy  :   -22.5298044 Eh     change       -0.8474308E-05 Eh
 * total energy  :   -22.5298107 Eh     change       -0.6275364E-05 Eh
 * total energy  :   -22.5298169 Eh     change       -0.6189593E-05 Eh
 * total energy  :   -22.5298181 Eh     change       -0.1243107E-05 Eh
   *** GEOMETRY OPTIMIZATION CONVERGED AFTER 22 ITERATIONS ***

 final structure:
================
13
 xtb: 6.7.1 (edcfbbe)
C           -5.69008179315802       -3.81864101024885        0.56724094370239
C           -6.93081750784980       -4.40677184179808        1.21819938262284
H           -4.95608434466746       -4.60269893967138        0.39659302204700
H           -5.94832119720212       -3.39193558943205       -0.39915566627549
H           -5.25695127903076       -3.04800395338226        1.19986318650810
C           -7.61218547185511       -5.50449214891288        0.37217576400435
H           -6.69265608988556       -4.86098716610482        2.18308606681219
H           -7.68619491062434       -3.63724785993031        1.39469300949929
O           -7.10448075753976       -5.80858607221524       -0.73323704803806
O           -8.63703589120121       -6.03101099527539        0.85445546634262
O           -8.64942106054901       -7.79740975080087       -1.78551468816553
H           -8.03136924370198       -7.08713821468795       -1.49809456526133
H           -9.29288288750469       -7.84512794898955       -1.07013015046911

          :  Hamiltonian                  GFN2-xTB          :
         :: gradient norm              0.000985710043 Eh/a0 ::
         :: HOMO-LUMO gap              5.149631819392 eV    ::
         :: SCC energy               -22.723789152193 Eh    ::
         :: -> dispersion             -0.006648908177 Eh    ::
         :: -> Gsolv                  -0.109940495980 Eh    ::
         :: repulsion energy           0.193971039672 Eh    ::

    * Orbital Energies and Occupations

         #    Occupation            Energy/Eh            Energy/eV
      -------------------------------------------------------------
         1        2.0000           -0.6721839             -18.2911
       ...           ...                  ...                  ...
         7        2.0000           -0.5323196             -14.4852
         8        2.0000           -0.5203183             -14.1586
         9        2.0000           -0.5137968             -13.9811
        10        2.0000           -0.4979899             -13.5510
        11        2.0000           -0.4846991             -13.1893
        12        2.0000           -0.4828595             -13.1393
        13        2.0000           -0.4600598             -12.5189
        14        2.0000           -0.4478045             -12.1854
        15        2.0000           -0.4340720             -11.8117
        16        2.0000           -0.4183322             -11.3834
        17        2.0000           -0.3992450             -10.8640
        18        2.0000           -0.3826359             -10.4121
        19        2.0000           -0.3627199              -9.8701 (HOMO)
        20                         -0.1734744              -4.7205 (LUMO)
        21                          0.1100013               2.9933
        22                          0.1349270               3.6716
        23                          0.1434190               3.9026
        24                          0.1653134               4.4984
        25                          0.1717593               4.6738
        26                          0.1914920               5.2108
        27                          0.2643797               7.1941
        28                          0.2824921               7.6870
        29                          0.2854082               7.7664
        30                          0.4321716              11.7600
        31                          0.6103001              16.6071
      -------------------------------------------------------------
                  HL-Gap            0.1892455 Eh            5.1496 eV

     #   Z          covCN         q      C6AA      α(0)
     1   6 C        3.751    -0.097    22.411     6.751
     2   6 C        3.798    -0.092    22.263     6.718
     3   1 H        0.925     0.034     2.529     2.487
     4   1 H        0.925     0.034     2.529     2.487
     5   1 H        0.925     0.047     2.363     2.404
     6   6 C        2.685     0.361    20.870     7.476
     7   1 H        0.924     0.030     2.583     2.513
     8   1 H        0.924     0.030     2.583     2.514
     9   8 O        0.856    -0.643    27.201     6.992
    10   8 O        0.856    -0.657    27.570     7.040
    11   8 O        1.607    -0.683    27.251     7.045
    12   1 H        0.802     0.309     0.694     1.309
    13   1 H        0.805     0.326     0.647     1.264

Wiberg/Mayer (AO) data.
largest (>0.10) Wiberg bond orders for each atom

     #   Z sym  total        # sym  WBO       # sym  WBO       # sym  WBO
 ---------------------------------------------------------------------------
     1   6 C    3.997 --     2 C    1.024     3 H    0.988     4 H    0.988
                             5 H    0.986
     2   6 C    3.995 --     1 C    1.024     8 H    0.968     7 H    0.968
                             6 C    0.936
     3   1 H    0.999 --     1 C    0.988
     4   1 H    0.999 --     1 C    0.988
     5   1 H    0.998 --     1 C    0.986
     6   6 C    3.927 --    10 O    1.497     9 O    1.468     2 C    0.936
     7   1 H    0.999 --     2 C    0.968
     8   1 H    0.999 --     2 C    0.968
     9   8 O    1.827 --     6 C    1.468    10 O    0.208
    10   8 O    1.782 --     6 C    1.497     9 O    0.208
    11   8 O    1.766 --    13 H    0.891    12 H    0.844
    12   1 H    0.904 --    11 O    0.844
    13   1 H    0.894 --    11 O    0.891
 ---------------------------------------------------------------------------

molecular dipole:
                 x           y           z       tot (Debye)
 q only:       15.161      12.069       0.845
   full:       15.201      12.302       1.142      49.790

 projected vibrational frequencies (cm⁻¹)
eigval :       -0.00    -0.00     0.00     0.00     0.00     0.00
eigval :      -26.95    41.90    43.98   162.84   169.20   205.53
eigval :      279.31   394.45   495.25   563.87   633.90   729.01
eigval :      819.08   857.86  1032.80  1050.92  1112.27  1229.32
eigval :     1294.14  1348.21  1397.09  1462.64  1480.70  1505.49
eigval :     1527.90  1634.07  2949.83  2967.49  3021.73  3028.22
eigval :     3040.37  3119.26  3596.88

   temp. (K)  partition function   enthalpy   heat capacity  entropy
                                   cal/mol     cal/K/mol   cal/K/mol   J/K/mol
 298.15  VIB   322.                 3254.523     18.606     20.545
         ROT  0.214E+06              888.752      2.981     27.375
         INT  0.691E+08             4143.275     21.587     47.920
         TR   0.841E+27             1481.254      4.968     39.422
         TOT                        5624.5290    26.5553    87.3423   365.4401

       T/K    H(0)-H(T)+PV         H(T)/Eh          T*S/Eh         G(T)/Eh
   ------------------------------------------------------------------------
    298.15    0.896326E-02    0.107370E+00    0.414991E-01    0.658707E-01
   ------------------------------------------------------------------------

         :::::::::::::::::::::::::::::::::::::::::::::::::::::
         ::                  THERMODYNAMIC                  ::
         :::::::::::::::::::::::::::::::::::::::::::::::::::::
         :: total free energy         -22.463947388343 Eh   ::
         ::.................................................::
         :: total energy              -22.529818110401 Eh   ::
         :: zero point energy           0.098406601296 Eh   ::
         :: G(RRHO) w/o ZPVE           -0.032535879238 Eh   ::
         :: G(RRHO) contrib.            0.065870722059 Eh   ::
         :::::::::::::::::::::::::::::::::::::::::::::::::::::

           -------------------------------------------------
          | TOTAL ENERGY              -22.529818110401 Eh   |
          | TOTAL ENTHALPY            -22.422448251644 Eh   |
          | TOTAL FREE ENERGY         -22.463947388343 Eh   |
          | GRADIENT NORM               0.000985706694 Eh/α |
          | HOMO-LUMO GAP               5.149631453105 eV   |
           -------------------------------------------------

 * finished run on 2025/10/18 at 03:30:53.303
normal termination of xtb
