   * xtb version 6.7.1 (edcfbbe) compiled by 'albert@albert-system' on 2024-07-22

   ID    Z sym.   atoms
    1    6 C      1, 2, 6
    2    1 H      3-5, 7, 8
    3    8 O      9, 10

          program call               : xtb tb_lite_results_shiftn0p1_gp479_b0_rot90_solute.xyz --ohess --chrg -1
          :  Hamiltonian                  GFN2-xTB          :
 * total energy  :   -17.3268460 Eh     change       -0.2494644E-09 Eh
 * total energy  :   -17.3293793 Eh     change       -0.2533230E-02 Eh
 * total energy  :   -17.3299109 Eh     change       -0.5316807E-03 Eh
 * total energy  :   -17.3299806 Eh     change       -0.6961889E-04 Eh
 * total energy  :   -17.3299476 Eh     change        0.3298173E-04 Eh
 * total energy  :   -17.3300270 Eh     change       -0.7939945E-04 Eh
 * total energy  :   -17.3300300 Eh     change       -0.2981917E-05 Eh
   *** GEOMETRY OPTIMIZATION CONVERGED AFTER 7 ITERATIONS ***

 final structure:
================
10
 xtb: 6.7.1 (edcfbbe)
C           -5.67266668517811       -3.85674814393750        0.51461694197529
C           -6.95472104428014       -4.28401459671436        1.20863929080200
H           -4.97003950502780       -4.68764187743629        0.49771464899704
H           -5.88196961985941       -3.58256099029347       -0.51785432334659
H           -5.20295811049457       -3.00468737037130        1.01696524664926
C           -7.64129980686647       -5.55612886737092        0.53851064762923
H           -6.75596630368184       -4.54113340721902        2.25424873493130
H           -7.68852917742532       -3.47227076865935        1.20225150224128
O           -7.01170925040950       -6.11528225222133       -0.36799336262125
O           -8.74709782607506       -5.84839694906377        1.01728570933237

          :  Hamiltonian                  GFN2-xTB          :
         :: gradient norm              0.000230521842 Eh/a0 ::
         :: HOMO-LUMO gap              5.319873408237 eV    ::
         :: SCC energy               -17.494325833543 Eh    ::
         :: -> dispersion             -0.005378925796 Eh    ::
         :: repulsion energy           0.164295873406 Eh    ::

    * Orbital Energies and Occupations

         #    Occupation            Energy/Eh            Energy/eV
      -------------------------------------------------------------
         1        2.0000           -0.4622129             -12.5775
       ...           ...                  ...                  ...
         3        2.0000           -0.4461081             -12.1392
         4        2.0000           -0.4068309             -11.0704
         5        2.0000           -0.3550155              -9.6605
         6        2.0000           -0.3431564              -9.3378
         7        2.0000           -0.3334858              -9.0746
         8        2.0000           -0.3076301              -8.3710
         9        2.0000           -0.3018204              -8.2130
        10        2.0000           -0.2918255              -7.9410
        11        2.0000           -0.2710068              -7.3745
        12        2.0000           -0.2675063              -7.2792
        13        2.0000           -0.1873446              -5.0979
        14        2.0000           -0.1725730              -4.6960
        15        2.0000           -0.1557118              -4.2371 (HOMO)
        16                          0.0397900               1.0827 (LUMO)
        17                          0.2603727               7.0851
        18                          0.3068866               8.3508
        19                          0.3178309               8.6486
        20                          0.3190749               8.6825
        21                          0.3464122               9.4264
        22                          0.4054795              11.0337
        23                          0.4368998              11.8886
        24                          0.6310847              17.1727
        25                          0.8811733              23.9779
      -------------------------------------------------------------
                  HL-Gap            0.1955017 Eh            5.3199 eV

     #   Z          covCN         q      C6AA      α(0)
     1   6 C        3.750    -0.074    21.988     6.688
     2   6 C        3.790    -0.089    22.213     6.712
     3   1 H        0.925     0.024     2.675     2.558
     4   1 H        0.925     0.017     2.781     2.608
     5   1 H        0.924    -0.018     3.384     2.877
     6   6 C        2.677     0.365    20.809     7.465
     7   1 H        0.924    -0.010     3.239     2.815
     8   1 H        0.924    -0.009     3.220     2.806
     9   8 O        0.856    -0.597    26.057     6.844
    10   8 O        0.856    -0.608    26.313     6.877

Wiberg/Mayer (AO) data.
largest (>0.10) Wiberg bond orders for each atom

     #   Z sym  total        # sym  WBO       # sym  WBO       # sym  WBO
 ---------------------------------------------------------------------------
     1   6 C    3.997 --     2 C    1.023     4 H    0.989     3 H    0.988
                             5 H    0.987
     2   6 C    3.965 --     1 C    1.023     8 H    0.978     7 H    0.976
                             6 C    0.866
     3   1 H    0.999 --     1 C    0.988
     4   1 H    1.000 --     1 C    0.989
     5   1 H    1.000 --     1 C    0.987
     6   6 C    3.945 --     9 O    1.537    10 O    1.525     2 C    0.866
     7   1 H    1.000 --     2 C    0.976
     8   1 H    1.000 --     2 C    0.978
     9   8 O    1.845 --     6 C    1.537    10 O    0.230
    10   8 O    1.831 --     6 C    1.525     9 O    0.230
 ---------------------------------------------------------------------------

molecular dipole:
                 x           y           z       tot (Debye)
 q only:       14.686      10.975      -0.750
   full:       14.850      11.254      -0.612      47.385

 projected vibrational frequencies (cm⁻¹)
eigval :       -0.00    -0.00     0.00     0.00     0.00     0.00
eigval :      -39.39   147.68   227.58   482.11   574.07   614.67
eigval :      799.14   818.83  1012.96  1017.54  1103.33  1238.80
eigval :     1276.62  1313.51  1396.21  1485.97  1498.54  1515.15
eigval :     1777.20  2919.02  2926.13  2947.02  3016.09  3027.09

   temp. (K)  partition function   enthalpy   heat capacity  entropy
                                   cal/mol     cal/K/mol   cal/K/mol   J/K/mol
 298.15  VIB   3.94                 1278.685     10.183      7.010
         ROT  0.784E+05              888.752      2.981     25.375
         INT  0.309E+06             2167.437     13.164     32.385
         TR   0.604E+27             1481.254      4.968     38.765
         TOT                        3648.6909    18.1321    71.1502   297.6924

       T/K    H(0)-H(T)+PV         H(T)/Eh          T*S/Eh         G(T)/Eh
   ------------------------------------------------------------------------
    298.15    0.581456E-02    0.813023E-01    0.338058E-01    0.474965E-01
   ------------------------------------------------------------------------

         :::::::::::::::::::::::::::::::::::::::::::::::::::::
         ::                  THERMODYNAMIC                  ::
         :::::::::::::::::::::::::::::::::::::::::::::::::::::
         :: total free energy         -17.282533431557 Eh   ::
         ::.................................................::
         :: total energy              -17.330029960137 Eh   ::
         :: zero point energy           0.075487724189 Eh   ::
         :: G(RRHO) w/o ZPVE           -0.027991195609 Eh   ::
         :: G(RRHO) contrib.            0.047496528580 Eh   ::
         :::::::::::::::::::::::::::::::::::::::::::::::::::::

           -------------------------------------------------
          | TOTAL ENERGY              -17.330029960137 Eh   |
          | TOTAL ENTHALPY            -17.248727676957 Eh   |
          | TOTAL FREE ENERGY         -17.282533431557 Eh   |
          | GRADIENT NORM               0.000230538949 Eh/α |
          | HOMO-LUMO GAP               5.319872953861 eV   |
           -------------------------------------------------

 * finished run on 2025/10/18 at 03:30:53.640
normal termination of xtb
