   * xtb version 6.7.1 (edcfbbe) compiled by 'albert@albert-system' on 2024-07-22

   ID    Z sym.   atoms
    1    6 C      1, 2, 6
    2    1 H      3-5, 7, 8, 12, 13
    3    8 O      9-11

          program call               : xtb tb_lite_results_shiftn0p15_gp601_b0_rot270_complex.xyz --ohess --chrg -1 --alpb water
      * Solvation model:               ALPB
        Solvent                        water
        Solvent mass                       1.8000E+01 g/mol
          :  Hamiltonian                  GFN2-xTB          :
 * total energy  :   -22.5262950 Eh     change       -0.6170353E-10 Eh
 * total energy  :   -22.5292369 Eh     change       -0.2941918E-02 Eh
 * total energy  :   -22.5294661 Eh     change       -0.2291252E-03 Eh
 * total energy  :   -22.5294929 Eh     change       -0.2686565E-04 Eh
 * total energy  :   -22.5295772 Eh     change       -0.8424050E-04 Eh
 * total energy  :   -22.5296040 Eh     change       -0.2685605E-04 Eh
 * total energy  :   -22.5296516 Eh     change       -0.4754241E-04 Eh
 * total energy  :   -22.5296831 Eh     change       -0.3151071E-04 Eh
 * total energy  :   -22.5297230 Eh     change       -0.3989254E-04 Eh
 * total energy  :   -22.5297616 Eh     change       -0.3863865E-04 Eh
 * total energy  :   -22.5298808 Eh     change       -0.1986520E-04 Eh
 * total energy  :   -22.5298923 Eh     change       -0.1151985E-04 Eh
 * total energy  :   -22.5299136 Eh     change       -0.2133579E-04 Eh
 * total energy  :   -22.5299262 Eh     change       -0.1261018E-04 Eh
 * total energy  :   -22.5299453 Eh     change       -0.1904114E-04 Eh
 * total energy  :   -22.5299530 Eh     change       -0.7752231E-05 Eh
 * total energy  :   -22.5299509 Eh     change        0.2096258E-05 Eh
 * total energy  :   -22.5299587 Eh     change       -0.7793871E-05 Eh
 * total energy  :   -22.5299612 Eh     change       -0.2416702E-05 Eh
   *** GEOMETRY OPTIMIZATION CONVERGED AFTER 25 ITERATIONS ***

 final structure:
================
13
 xtb: 6.7.1 (edcfbbe)
C           -5.74444636429967       -3.85997836863171        0.40386819124524
C           -6.88762547833334       -4.35416586589220        1.27421190120815
H           -5.02521005050296       -4.66073810475530        0.24869256855102
H           -6.12676412790663       -3.56473024586436       -0.57048272138194
H           -5.24877086931345       -3.01291123616387        0.87126798772504
C           -7.67562253478039       -5.52559212839828        0.64877290643203
H           -6.52562969933126       -4.70277830523135        2.24428120502403
H           -7.61366055627184       -3.55910371783174        1.46085387044129
O           -7.34900335597638       -5.95424962611338       -0.47226803269941
O           -8.62506919332904       -5.97667491091264        1.34216913429796
O           -9.82253927773917       -7.92285879966713       -0.14852890717901
H           -9.46589319492389       -7.24229997313526        0.46729225775337
H           -9.22398721291734       -7.88759016452678       -0.90326024977769

          :  Hamiltonian                  GFN2-xTB          :
         :: gradient norm              0.000616956538 Eh/a0 ::
         :: HOMO-LUMO gap              5.152523883867 eV    ::
         :: SCC energy               -22.723909372447 Eh    ::
         :: -> dispersion             -0.006632223572 Eh    ::
         :: -> Gsolv                  -0.110057332826 Eh    ::
         :: repulsion energy           0.193948216887 Eh    ::

    * Orbital Energies and Occupations

         #    Occupation            Energy/Eh            Energy/eV
      -------------------------------------------------------------
         1        2.0000           -0.6722015             -18.2915
       ...           ...                  ...                  ...
         7        2.0000           -0.5320653             -14.4782
         8        2.0000           -0.5203553             -14.1596
         9        2.0000           -0.5149409             -14.0123
        10        2.0000           -0.4995323             -13.5930
        11        2.0000           -0.4830716             -13.1450
        12        2.0000           -0.4817028             -13.1078
        13        2.0000           -0.4618176             -12.5667
        14        2.0000           -0.4472655             -12.1707
        15        2.0000           -0.4339446             -11.8082
        16        2.0000           -0.4183146             -11.3829
        17        2.0000           -0.3994956             -10.8708
        18        2.0000           -0.3826301             -10.4119
        19        2.0000           -0.3628918              -9.8748 (HOMO)
        20                         -0.1735400              -4.7223 (LUMO)
        21                          0.1077648               2.9324
        22                          0.1397547               3.8029
        23                          0.1423161               3.8726
        24                          0.1653566               4.4996
        25                          0.1708652               4.6495
        26                          0.1915008               5.2110
        27                          0.2638808               7.1806
        28                          0.2827973               7.6953
        29                          0.2845872               7.7440
        30                          0.4293387              11.6829
        31                          0.6133440              16.6899
      -------------------------------------------------------------
                  HL-Gap            0.1893518 Eh            5.1525 eV

     #   Z          covCN         q      C6AA      α(0)
     1   6 C        3.751    -0.098    22.427     6.753
     2   6 C        3.798    -0.092    22.258     6.717
     3   1 H        0.925     0.035     2.521     2.483
     4   1 H        0.925     0.035     2.515     2.480
     5   1 H        0.925     0.047     2.359     2.402
     6   6 C        2.685     0.361    20.870     7.476
     7   1 H        0.924     0.030     2.593     2.518
     8   1 H        0.924     0.030     2.591     2.517
     9   8 O        0.856    -0.635    26.985     6.965
    10   8 O        0.856    -0.666    27.787     7.067
    11   8 O        1.607    -0.683    27.261     7.047
    12   1 H        0.802     0.309     0.696     1.311
    13   1 H        0.805     0.327     0.645     1.261

Wiberg/Mayer (AO) data.
largest (>0.10) Wiberg bond orders for each atom

     #   Z sym  total        # sym  WBO       # sym  WBO       # sym  WBO
 ---------------------------------------------------------------------------
     1   6 C    3.997 --     2 C    1.024     3 H    0.988     4 H    0.988
                             5 H    0.987
     2   6 C    3.995 --     1 C    1.024     7 H    0.968     8 H    0.968
                             6 C    0.936
     3   1 H    0.999 --     1 C    0.988
     4   1 H    0.999 --     1 C    0.988
     5   1 H    0.998 --     1 C    0.987
     6   6 C    3.927 --     9 O    1.521    10 O    1.445     2 C    0.936
     7   1 H    0.999 --     2 C    0.968
     8   1 H    0.999 --     2 C    0.968
     9   8 O    1.808 --     6 C    1.521    10 O    0.208
    10   8 O    1.801 --     6 C    1.445     9 O    0.208
    11   8 O    1.766 --    13 H    0.891    12 H    0.844
    12   1 H    0.905 --    11 O    0.844
    13   1 H    0.893 --    11 O    0.891
 ---------------------------------------------------------------------------

molecular dipole:
                 x           y           z       tot (Debye)
 q only:       16.143      12.211      -0.806
   full:       16.369      12.463      -0.723      52.326

 projected vibrational frequencies (cm⁻¹)
eigval :       -0.00    -0.00    -0.00     0.00     0.00     0.00
eigval :      -43.13   -17.36    40.17   155.48   163.66   193.73
eigval :      247.14   387.95   509.80   563.36   627.66   741.72
eigval :      818.52   857.96  1032.76  1050.37  1112.13  1228.30
eigval :     1290.80  1346.17  1395.61  1462.78  1479.91  1504.63
eigval :     1524.63  1638.71  2950.33  2968.36  3021.93  3028.16
eigval :     3039.94  3113.51  3588.15

   temp. (K)  partition function   enthalpy   heat capacity  entropy
                                   cal/mol     cal/K/mol   cal/K/mol   J/K/mol
 298.15  VIB   923.                 3342.877     18.277     21.435
         ROT  0.201E+06              888.752      2.981     27.243
         INT  0.185E+09             4231.629     21.258     48.678
         TR   0.841E+27             1481.254      4.968     39.422
         TOT                        5712.8830    26.2259    88.0999   368.6098

       T/K    H(0)-H(T)+PV         H(T)/Eh          T*S/Eh         G(T)/Eh
   ------------------------------------------------------------------------
    298.15    0.910406E-02    0.107297E+00    0.418591E-01    0.654378E-01
   ------------------------------------------------------------------------

         :::::::::::::::::::::::::::::::::::::::::::::::::::::
         ::                  THERMODYNAMIC                  ::
         :::::::::::::::::::::::::::::::::::::::::::::::::::::
         :: total free energy         -22.464523327845 Eh   ::
         ::.................................................::
         :: total energy              -22.529961154515 Eh   ::
         :: zero point energy           0.098192857377 Eh   ::
         :: G(RRHO) w/o ZPVE           -0.032755030707 Eh   ::
         :: G(RRHO) contrib.            0.065437826671 Eh   ::
         :::::::::::::::::::::::::::::::::::::::::::::::::::::

           -------------------------------------------------
          | TOTAL ENERGY              -22.529961154515 Eh   |
          | TOTAL ENTHALPY            -22.422664238549 Eh   |
          | TOTAL FREE ENERGY         -22.464523327845 Eh   |
          | GRADIENT NORM               0.000616887390 Eh/α |
          | HOMO-LUMO GAP               5.152524765453 eV   |
           -------------------------------------------------

 * finished run on 2025/10/18 at 03:30:54.887
normal termination of xtb
