   * xtb version 6.7.1 (edcfbbe) compiled by 'albert@albert-system' on 2024-07-22

   ID    Z sym.   atoms
    1    6 C      1
    2   16 S      2
    3    1 H      3-5

          program call               : xtb xyz.xyz --charge -1 --ohess
          :  Hamiltonian                  GFN2-xTB          :
 * total energy  :    -7.1022687 Eh     change       -0.3428369E-12 Eh
 * total energy  :    -7.1032478 Eh     change       -0.9790982E-03 Eh
 * total energy  :    -7.1032622 Eh     change       -0.1437607E-04 Eh
 * total energy  :    -7.1032628 Eh     change       -0.5492641E-06 Eh
   *** GEOMETRY OPTIMIZATION CONVERGED AFTER 4 ITERATIONS ***

 final structure:
================
5
 xtb: 6.7.1 (edcfbbe)
C           -3.78696072880459       -1.77154693234131        1.77180872623828
S           -5.27448259757913       -2.41837543724448        2.56322332321305
H           -4.01660372378007       -1.40357091707617        0.76497724122446
H           -3.37003749684147       -0.94320291687092        2.35650789654488
H           -3.02453145299475       -2.55489879646712        1.68866181277933

          :  Hamiltonian                  GFN2-xTB          :
         :: gradient norm              0.000353421074 Eh/a0 ::
         :: HOMO-LUMO gap              4.305424075906 eV    ::
         :: SCC energy                -7.159594102581 Eh    ::
         :: -> dispersion             -0.001954068274 Eh    ::
         :: repulsion energy           0.056331340365 Eh    ::

    * Orbital Energies and Occupations

         #    Occupation            Energy/Eh            Energy/eV
      -------------------------------------------------------------
         1        2.0000           -0.4341737             -11.8145
         2        2.0000           -0.3950980             -10.7512
         3        2.0000           -0.2961523              -8.0587
         4        2.0000           -0.2961523              -8.0587
         5        2.0000           -0.2276510              -6.1947
         6        2.0000           -0.0891452              -2.4258
         7        2.0000           -0.0891452              -2.4258 (HOMO)
         8                          0.0690762               1.8797 (LUMO)
         9                          0.2405746               6.5464
        10                          0.2405746               6.5464
        11                          0.2636209               7.1735
        12                          0.2636209               7.1735
        13                          0.3355369               9.1304
        14                          0.4092986              11.1376
        15                          0.4092986              11.1376
        16                          0.5536035              15.0643
      -------------------------------------------------------------
                  HL-Gap            0.1582214 Eh            4.3054 eV

     #   Z          covCN         q      C6AA      α(0)
     1   6 C        3.741     0.058    19.683     6.330
     2  16 S        0.971    -0.920   183.682    22.923
     3   1 H        0.924    -0.046     3.996     3.126
     4   1 H        0.924    -0.046     3.996     3.126
     5   1 H        0.924    -0.046     3.996     3.126

Wiberg/Mayer (AO) data.
largest (>0.10) Wiberg bond orders for each atom

     #   Z sym  total        # sym  WBO       # sym  WBO       # sym  WBO
 ---------------------------------------------------------------------------
     1   6 C    3.986 --     2 S    1.024     4 H    0.987     3 H    0.987
                             5 H    0.987
     2  16 S    1.056 --     1 C    1.024
     3   1 H    0.998 --     1 C    0.987
     4   1 H    0.998 --     1 C    0.987
     5   1 H    0.998 --     1 C    0.987
 ---------------------------------------------------------------------------

molecular dipole:
                 x           y           z       tot (Debye)
 q only:        9.658       4.436      -4.679
   full:       10.229       4.684      -4.983      31.275

 projected vibrational frequencies (cm⁻¹)
eigval :       -0.00    -0.00    -0.00     0.00     0.00     0.00
eigval :      717.54   928.42   928.44  1329.55  1501.58  1501.59
eigval :     2859.72  2859.75  2899.31

   temp. (K)  partition function   enthalpy   heat capacity  entropy
                                   cal/mol     cal/K/mol   cal/K/mol   J/K/mol
 298.15  VIB   1.06                  139.611      2.005      0.583
         ROT  0.174E+04              888.752      2.981     17.806
         INT  0.184E+04             1028.363      4.986     18.389
         TR   0.313E+27             1481.254      4.968     37.457
         TOT                        2509.6169     9.9541    55.8455   233.6575

       T/K    H(0)-H(T)+PV         H(T)/Eh          T*S/Eh         G(T)/Eh
   ------------------------------------------------------------------------
    298.15    0.399933E-02    0.393699E-01    0.265340E-01    0.128359E-01
   ------------------------------------------------------------------------

         :::::::::::::::::::::::::::::::::::::::::::::::::::::
         ::                  THERMODYNAMIC                  ::
         :::::::::::::::::::::::::::::::::::::::::::::::::::::
         :: total free energy          -7.090426835501 Eh   ::
         ::.................................................::
         :: total energy               -7.103262762216 Eh   ::
         :: zero point energy           0.035370591603 Eh   ::
         :: G(RRHO) w/o ZPVE           -0.022534664888 Eh   ::
         :: G(RRHO) contrib.            0.012835926716 Eh   ::
         :::::::::::::::::::::::::::::::::::::::::::::::::::::

           -------------------------------------------------
          | TOTAL ENERGY               -7.103262762216 Eh   |
          | TOTAL ENTHALPY             -7.063892841443 Eh   |
          | TOTAL FREE ENERGY          -7.090426835501 Eh   |
          | GRADIENT NORM               0.000353435394 Eh/α |
          | HOMO-LUMO GAP               4.305424201284 eV   |
           -------------------------------------------------

 * finished run on 2025/10/18 at 05:34:22.757
