   * xtb version 6.7.1 (edcfbbe) compiled by 'albert@albert-system' on 2024-07-22

   ID    Z sym.   atoms
    1    7 N      1
    2    6 C      2

          program call               : xtb tb_lite_results_shiftn0p3_gp19_b0_rot0_complex.xyz --alpb water --charge -1 --ohess
      * Solvation model:               ALPB
        Solvent                        water
        Solvent mass                       1.8000E+01 g/mol
          :  Hamiltonian                  GFN2-xTB          :
 * total energy  :    -5.1686252 Eh     change       -0.1094236E-10 Eh
 * total energy  :    -5.2369186 Eh     change       -0.6829337E-01 Eh
 * total energy  :    -5.2338290 Eh     change        0.3089589E-02 Eh
 * total energy  :    -5.2391335 Eh     change       -0.5304536E-02 Eh
 * total energy  :    -5.2391947 Eh     change       -0.6116712E-04 Eh
 * total energy  :    -5.2391964 Eh     change       -0.1682506E-05 Eh
   *** GEOMETRY OPTIMIZATION CONVERGED AFTER 6 ITERATIONS ***

 final structure:
================
2
 xtb: 6.7.1 (edcfbbe)
N           -5.00286455293398       -1.58288612606279       -2.59001365612134
C           -5.23759849747443       -2.75617589536490       -2.64499136995190

          :  Hamiltonian                  GFN2-xTB          :
         :: gradient norm              0.000067583820 Eh/a0 ::
         :: HOMO-LUMO gap              4.452553891707 eV    ::
         :: SCC energy                -5.309710160688 Eh    ::
         :: -> dispersion             -0.000475527740 Eh    ::
         :: -> Gsolv                  -0.125912681223 Eh    ::
         :: repulsion energy           0.070513805347 Eh    ::

    * Orbital Energies and Occupations

         #    Occupation            Energy/Eh            Energy/eV
      -------------------------------------------------------------
         1        2.0000           -0.5170012             -14.0683
         2        2.0000           -0.3811065             -10.3704
         3        2.0000           -0.3260505              -8.8723
         4        2.0000           -0.3260505              -8.8723
         5        2.0000           -0.2471962              -6.7266 (HOMO)
         6                         -0.0835679              -2.2740 (LUMO)
         7                         -0.0835679              -2.2740
         8                          0.8048919              21.9022
      -------------------------------------------------------------
                  HL-Gap            0.1636283 Eh            4.4526 eV

     #   Z          covCN         q      C6AA      α(0)
     1   7 N        0.910    -0.651    38.388     8.961
     2   6 C        0.910    -0.349    48.015    11.596

Wiberg/Mayer (AO) data.
largest (>0.10) Wiberg bond orders for each atom

     #   Z sym  total        # sym  WBO       # sym  WBO       # sym  WBO
 ---------------------------------------------------------------------------
     1   7 N    2.831 --     2 C    2.831
     2   6 C    2.831 --     1 N    2.831
 ---------------------------------------------------------------------------

molecular dipole:
                 x           y           z       tot (Debye)
 q only:        9.609       3.764       4.931
   full:        9.627       3.853       4.935      29.188

   temp. (K)  partition function   enthalpy   heat capacity  entropy
                                   cal/mol     cal/K/mol   cal/K/mol   J/K/mol
 298.15  VIB   1.00                    0.284      0.009      0.001
         ROT   114.                  592.502      1.987     11.400
         INT   114.                  592.786      1.997     11.401
         TR   0.128E+27             1481.254      4.968     35.688
         TOT                        2074.0394     6.9649    47.0895   197.0226

       T/K    H(0)-H(T)+PV         H(T)/Eh          T*S/Eh         G(T)/Eh
   ------------------------------------------------------------------------
    298.15    0.330519E-02    0.799776E-02    0.223738E-01   -0.143760E-01
   ------------------------------------------------------------------------

         :::::::::::::::::::::::::::::::::::::::::::::::::::::
         ::                  THERMODYNAMIC                  ::
         :::::::::::::::::::::::::::::::::::::::::::::::::::::
         :: total free energy          -5.253572344535 Eh   ::
         ::.................................................::
         :: total energy               -5.239196354957 Eh   ::
         :: zero point energy           0.004692570566 Eh   ::
         :: G(RRHO) w/o ZPVE           -0.019068560143 Eh   ::
         :: G(RRHO) contrib.           -0.014375989578 Eh   ::
         :::::::::::::::::::::::::::::::::::::::::::::::::::::

           -------------------------------------------------
          | TOTAL ENERGY               -5.239196354957 Eh   |
          | TOTAL ENTHALPY             -5.231198592170 Eh   |
          | TOTAL FREE ENERGY          -5.253572344535 Eh   |
          | GRADIENT NORM               0.000067581110 Eh/α |
          | HOMO-LUMO GAP               4.452553880055 eV   |
           -------------------------------------------------

 * finished run on 2025/10/17 at 21:01:27.664
