   * xtb version 6.7.1 (edcfbbe) compiled by 'albert@albert-system' on 2024-07-22

   ID    Z sym.   atoms
    1    6 C      1, 2, 5, 7, 9, 11
    2    1 H      3, 6, 8, 10, 12
    3    8 O      4

          program call               : xtb xyz.xyz --alpb water --charge -1 --ohess
      * Solvation model:               ALPB
        Solvent                        water
        Solvent mass                       1.8000E+01 g/mol
          :  Hamiltonian                  GFN2-xTB          :
 * total energy  :   -19.7348220 Eh     change       -0.1963585E-10 Eh
 * total energy  :   -19.7371385 Eh     change       -0.2316497E-02 Eh
 * total energy  :   -19.7371899 Eh     change       -0.5135628E-04 Eh
 * total energy  :   -19.7371936 Eh     change       -0.3727842E-05 Eh
   *** GEOMETRY OPTIMIZATION CONVERGED AFTER 4 ITERATIONS ***

 final structure:
================
12
 xtb: 6.7.1 (edcfbbe)
C           -3.05570047386427        1.72630808425773       -0.00001053399065
C           -3.03125265039638        0.35187165937229        0.00000068819282
H            0.27652412318873        2.31269683048835       -0.00003777373518
O           -1.87882210703154        3.78654791286035       -0.00003569439095
C           -1.83055006175837       -0.34272513987158       -0.00000138879706
H           -3.96801672776917       -0.19391871583950        0.00001149419586
C           -0.64640892254569        0.37974149561359       -0.00001532966414
H           -1.81793815414938       -1.42310256447373        0.00000772900569
C           -0.65408047960285        1.75437888788466       -0.00002656022943
H            0.30284316750815       -0.14403440164967       -0.00001703857386
C           -1.86378151890650        2.50107999225934       -0.00002428064283
H           -3.99908330422065        2.26274602410922       -0.00000931098518

          :  Hamiltonian                  GFN2-xTB          :
         :: gradient norm              0.000316799333 Eh/a0 ::
         :: HOMO-LUMO gap              3.442985132728 eV    ::
         :: SCC energy               -20.042398498472 Eh    ::
         :: -> dispersion             -0.009678556521 Eh    ::
         :: -> Gsolv                  -0.097667329721 Eh    ::
         :: repulsion energy           0.305204874195 Eh    ::

    * Orbital Energies and Occupations

         #    Occupation            Energy/Eh            Energy/eV
      -------------------------------------------------------------
         1        2.0000           -0.6197832             -16.8652
       ...           ...                  ...                  ...
         6        2.0000           -0.5328072             -14.4984
         7        2.0000           -0.4985521             -13.5663
         8        2.0000           -0.4732703             -12.8783
         9        2.0000           -0.4647727             -12.6471
        10        2.0000           -0.4514494             -12.2846
        11        2.0000           -0.4490460             -12.2192
        12        2.0000           -0.4420856             -12.0298
        13        2.0000           -0.4085179             -11.1163
        14        2.0000           -0.4036767             -10.9846
        15        2.0000           -0.4010473             -10.9131
        16        2.0000           -0.3702631             -10.0754
        17        2.0000           -0.3238268              -8.8118
        18        2.0000           -0.3130397              -8.5182 (HOMO)
        19                         -0.1865123              -5.0753 (LUMO)
        20                         -0.1647937              -4.4843
        21                         -0.0491284              -1.3369
        22                          0.1394844               3.7956
        23                          0.1528173               4.1584
        24                          0.1814511               4.9375
        25                          0.2141973               5.8286
        26                          0.2245470               6.1102
        27                          0.2675735               7.2810
        28                          0.4227803              11.5044
        29                          0.4565620              12.4237
       ...                                ...                  ...
        33                          0.7092573              19.2999
      -------------------------------------------------------------
                  HL-Gap            0.1265274 Eh            3.4430 eV

     #   Z          covCN         q      C6AA      α(0)
     1   6 C        2.918    -0.097    30.440     9.047
     2   6 C        2.915    -0.049    29.210     8.863
     3   1 H        0.925    -0.026     3.552     2.947
     4   8 O        0.857    -0.736    29.698     7.306
     5   6 C        2.917    -0.080    29.989     8.980
     6   1 H        0.925    -0.003     3.104     2.755
     7   6 C        2.915    -0.049    29.210     8.863
     8   1 H        0.926    -0.000     3.060     2.735
     9   6 C        2.918    -0.097    30.440     9.047
    10   1 H        0.925    -0.003     3.104     2.755
    11   6 C        2.832     0.164    24.455     8.104
    12   1 H        0.925    -0.026     3.552     2.947

Wiberg/Mayer (AO) data.
largest (>0.10) Wiberg bond orders for each atom

     #   Z sym  total        # sym  WBO       # sym  WBO       # sym  WBO
 ---------------------------------------------------------------------------
     1   6 C    3.978 --     2 C    1.497    11 C    1.248    12 H    0.971
     2   6 C    3.990 --     1 C    1.497     5 C    1.402     6 H    0.971
     3   1 H    0.999 --     9 C    0.971
     4   8 O    1.660 --    11 C    1.366
     5   6 C    3.978 --     7 C    1.402     2 C    1.402     8 H    0.973
     6   1 H    1.000 --     2 C    0.971
     7   6 C    3.990 --     9 C    1.497     5 C    1.402    10 H    0.971
     8   1 H    1.000 --     5 C    0.973
     9   6 C    3.978 --     7 C    1.497    11 C    1.248     3 H    0.971
    10   1 H    1.000 --     7 C    0.971
    11   6 C    3.964 --     4 O    1.366     9 C    1.248     1 C    1.248
    12   1 H    0.999 --     1 C    0.971
 ---------------------------------------------------------------------------

molecular dipole:
                 x           y           z       tot (Debye)
 q only:        3.529      -5.365       0.000
   full:        3.531      -5.462       0.000      16.530

 projected vibrational frequencies (cm⁻¹)
eigval :       -0.00     0.00     0.00     0.00     0.00     0.00
eigval :      200.72   377.98   430.99   477.20   502.09   590.02
eigval :      656.69   747.47   820.19   843.26   847.57   907.15
eigval :      907.62   962.12  1075.80  1103.94  1173.85  1189.55
eigval :     1257.75  1321.83  1354.77  1453.44  1506.34  1540.95
eigval :     1610.37  2990.51  2995.83  3006.72  3017.94  3057.06

   temp. (K)  partition function   enthalpy   heat capacity  entropy
                                   cal/mol     cal/K/mol   cal/K/mol   J/K/mol
 298.15  VIB   3.42                 1580.649     14.908      7.744
         ROT  0.798E+05              888.752      2.981     25.411
         INT  0.273E+06             2469.401     17.889     33.155
         TR   0.869E+27             1481.254      4.968     39.487
         TOT                        3950.6553    22.8568    72.6423   303.9352

       T/K    H(0)-H(T)+PV         H(T)/Eh          T*S/Eh         G(T)/Eh
   ------------------------------------------------------------------------
    298.15    0.629577E-02    0.949797E-01    0.345147E-01    0.604650E-01
   ------------------------------------------------------------------------

         :::::::::::::::::::::::::::::::::::::::::::::::::::::
         ::                  THERMODYNAMIC                  ::
         :::::::::::::::::::::::::::::::::::::::::::::::::::::
         :: total free energy         -19.676728645987 Eh   ::
         ::.................................................::
         :: total energy              -19.737193624347 Eh   ::
         :: zero point energy           0.088683890460 Eh   ::
         :: G(RRHO) w/o ZPVE           -0.028218912100 Eh   ::
         :: G(RRHO) contrib.            0.060464978360 Eh   ::
         :::::::::::::::::::::::::::::::::::::::::::::::::::::

           -------------------------------------------------
          | TOTAL ENERGY              -19.737193624347 Eh   |
          | TOTAL ENTHALPY            -19.642213963952 Eh   |
          | TOTAL FREE ENERGY         -19.676728645987 Eh   |
          | GRADIENT NORM               0.000316869646 Eh/α |
          | HOMO-LUMO GAP               3.442984658684 eV   |
           -------------------------------------------------

 * finished run on 2025/10/17 at 23:09:06.968
