   * xtb version 6.7.1 (edcfbbe) compiled by 'albert@albert-system' on 2024-07-22

   ID    Z sym.   atoms
    1    6 C      1, 2, 4, 6, 8, 10
    2    7 N      3
    3    1 H      5, 7, 9, 11, 16, 17
    4    8 O      12-15

          program call               : xtb tb_lite_results_shiftn0p05_gp654_b0_rot270_complex.xyz --ohess --chrg -1 --alpb water
      * Solvation model:               ALPB
        Solvent                        water
        Solvent mass                       1.8000E+01 g/mol
          :  Hamiltonian                  GFN2-xTB          :
 * total energy  :   -35.3203738 Eh     change       -0.2922036E-09 Eh
 * total energy  :   -35.3242361 Eh     change       -0.3862287E-02 Eh
 * total energy  :   -35.3251594 Eh     change       -0.9233076E-03 Eh
 * total energy  :   -35.3253677 Eh     change       -0.2082388E-03 Eh
 * total energy  :   -35.3254498 Eh     change       -0.8215731E-04 Eh
 * total energy  :   -35.3254950 Eh     change       -0.4517382E-04 Eh
 * total energy  :   -35.3255429 Eh     change       -0.4790725E-04 Eh
 * total energy  :   -35.3255887 Eh     change       -0.4576628E-04 Eh
 * total energy  :   -35.3256322 Eh     change       -0.4355751E-04 Eh
 * total energy  :   -35.3256727 Eh     change       -0.4044449E-04 Eh
 * total energy  :   -35.3257711 Eh     change       -0.1658630E-04 Eh
 * total energy  :   -35.3257874 Eh     change       -0.1627651E-04 Eh
 * total energy  :   -35.3258038 Eh     change       -0.1637655E-04 Eh
 * total energy  :   -35.3258267 Eh     change       -0.2298449E-04 Eh
 * total energy  :   -35.3258353 Eh     change       -0.8577025E-05 Eh
 * total energy  :   -35.3258462 Eh     change       -0.1084385E-04 Eh
 * total energy  :   -35.3258591 Eh     change       -0.1294713E-04 Eh
 * total energy  :   -35.3258695 Eh     change       -0.1037920E-04 Eh
 * total energy  :   -35.3258739 Eh     change       -0.4365739E-05 Eh
   *** GEOMETRY OPTIMIZATION CONVERGED AFTER 22 ITERATIONS ***

 final structure:
================
17
 xtb: 6.7.1 (edcfbbe)
C           -3.99518298091134       -1.98476185793248        1.85513353408919
C           -3.83949479182697       -2.40536541539034        0.57338072655882
N           -7.06351914307426       -3.87788073418971        2.74748240583807
C           -5.06743087184178       -2.43748890618663        2.70156034536006
H           -3.30908390100874       -1.28468314021406        2.30869950733619
C           -4.74201466884841       -3.32085600822107       -0.00334008656017
H           -3.01278657746659       -2.03706996692363       -0.01567555639031
C           -5.78483141465863       -3.78388679340065        0.73850574658902
H           -4.60515773238704       -3.64780149753203       -1.02061603677206
C           -5.97997198679770       -3.37037409089677        2.07435521124498
H           -6.50161349323725       -4.48404287153024        0.33580521545293
O           -5.16615483607850       -2.02432413944346        3.88352808810964
O           -7.83633002382194       -4.66893560644926        2.16053301363957
O           -7.29752604101153       -3.56682206469233        3.92886570106510
O           -5.67225831557915       -3.26727358736038        6.35605693148079
H           -5.37873052363133       -2.73566503908837        5.59659653541241
H           -6.51212774732742       -3.63243875251527        6.05505457546896

          :  Hamiltonian                  GFN2-xTB          :
         :: gradient norm              0.000376131005 Eh/a0 ::
         :: HOMO-LUMO gap              1.908777307787 eV    ::
         :: SCC energy               -35.689552191885 Eh    ::
         :: -> dispersion             -0.014686968541 Eh    ::
         :: -> Gsolv                  -0.099260278526 Eh    ::
         :: repulsion energy           0.363678330061 Eh    ::

    * Orbital Energies and Occupations

         #    Occupation            Energy/Eh            Energy/eV
      -------------------------------------------------------------
         1        2.0000           -0.7367490             -20.0480
       ...           ...                  ...                  ...
        18        2.0000           -0.4970521             -13.5255
        19        2.0000           -0.4867199             -13.2443
        20        2.0000           -0.4791675             -13.0388
        21        2.0000           -0.4546671             -12.3721
        22        2.0000           -0.4501961             -12.2505
        23        2.0000           -0.4453555             -12.1187
        24        2.0000           -0.4369874             -11.8910
        25        2.0000           -0.4236803             -11.5289
        26        2.0000           -0.4212978             -11.4641
        27        2.0000           -0.4206496             -11.4465
        28        2.0000           -0.4139879             -11.2652
        29        2.0000           -0.3720859             -10.1250
        30        2.0000           -0.3674899              -9.9999 (HOMO)
        31                         -0.2973439              -8.0911 (LUMO)
        32                         -0.2104928              -5.7278
        33                         -0.2015522              -5.4845
        34                         -0.0870358              -2.3684
        35                          0.0351253               0.9558
        36                          0.1228205               3.3421
        37                          0.1324157               3.6032
        38                          0.1390843               3.7847
        39                          0.1680971               4.5742
        40                          0.1791909               4.8760
        41                          0.2007896               5.4638
       ...                                ...                  ...
        50                          0.6998060              19.0427
      -------------------------------------------------------------
                  HL-Gap            0.0701461 Eh            1.9088 eV

     #   Z          covCN         q      C6AA      α(0)
     1   6 C        2.913    -0.078    29.947     8.974
     2   6 C        2.913    -0.029    28.719     8.788
     3   7 N        2.765     0.483    14.217     5.600
     4   6 C        2.829     0.204    23.671     7.972
     5   1 H        0.926     0.043     2.404     2.425
     6   6 C        2.914    -0.054    29.332     8.881
     7   1 H        0.926     0.062     2.180     2.309
     8   6 C        2.918    -0.034    28.850     8.808
     9   1 H        0.926     0.059     2.213     2.326
    10   6 C        2.904    -0.047    29.162     8.855
    11   1 H        0.926     0.056     2.247     2.344
    12   8 O        0.857    -0.580    25.632     6.788
    13   8 O        0.930    -0.540    24.649     6.658
    14   8 O        0.929    -0.522    24.236     6.602
    15   8 O        1.609    -0.666    26.835     6.991
    16   1 H        0.804     0.319     0.666     1.282
    17   1 H        0.805     0.323     0.655     1.271

Wiberg/Mayer (AO) data.
largest (>0.10) Wiberg bond orders for each atom

     #   Z sym  total        # sym  WBO       # sym  WBO       # sym  WBO
 ---------------------------------------------------------------------------
     1   6 C    3.987 --     2 C    1.614     4 C    1.168     5 H    0.969
                             8 C    0.114
     2   6 C    3.988 --     1 C    1.614     6 C    1.276     7 H    0.967
     3   7 N    3.884 --    14 O    1.325    13 O    1.300    10 C    1.155
     4   6 C    3.955 --    12 O    1.502     1 C    1.168    10 C    1.143
     5   1 H    0.998 --     1 C    0.969
     6   6 C    3.987 --     8 C    1.576     2 C    1.276     9 H    0.968
     7   1 H    0.996 --     2 C    0.967
     8   6 C    3.987 --     6 C    1.576    10 C    1.268    11 H    0.962
                             1 C    0.114
     9   1 H    0.996 --     6 C    0.968
    10   6 C    3.930 --     8 C    1.268     3 N    1.155     4 C    1.143
    11   1 H    0.997 --     8 C    0.962
    12   8 O    1.871 --     4 C    1.502
    13   8 O    1.756 --     3 N    1.300    14 O    0.236
    14   8 O    1.791 --     3 N    1.325    13 O    0.236
    15   8 O    1.777 --    17 H    0.889    16 H    0.867
    16   1 H    0.898 --    15 O    0.867
    17   1 H    0.895 --    15 O    0.889
 ---------------------------------------------------------------------------

molecular dipole:
                 x           y           z       tot (Debye)
 q only:       12.730       6.345      -8.140
   full:       12.596       6.352      -8.390      41.718

 projected vibrational frequencies (cm⁻¹)
eigval :       -0.00    -0.00     0.00     0.00     0.00     0.00
eigval :       23.02    45.31    86.84   105.39   151.53   217.33
eigval :      231.31   250.89   294.74   366.49   382.20   425.59
eigval :      481.67   540.60   581.58   608.22   642.15   654.87
eigval :      728.93   773.12   797.35   847.58   859.82   904.97
eigval :      919.73  1063.24  1094.69  1159.51  1176.85  1214.45
eigval :     1277.69  1344.81  1353.65  1428.62  1435.74  1520.96
eigval :     1523.03  1546.62  1618.48  3074.03  3087.67  3088.06
eigval :     3111.24  3402.62  3587.78

   temp. (K)  partition function   enthalpy   heat capacity  entropy
                                   cal/mol     cal/K/mol   cal/K/mol   J/K/mol
 298.15  VIB  0.837E+04             5317.911     32.313     32.912
         ROT  0.958E+06              888.752      2.981     30.350
         INT  0.801E+10             6206.664     35.294     63.262
         TR   0.189E+28             1481.254      4.968     41.027
         TOT                        7687.9175    40.2623   104.2894   436.3470

       T/K    H(0)-H(T)+PV         H(T)/Eh          T*S/Eh         G(T)/Eh
   ------------------------------------------------------------------------
    298.15    0.122515E-01    0.126230E+00    0.495513E-01    0.766791E-01
   ------------------------------------------------------------------------

         :::::::::::::::::::::::::::::::::::::::::::::::::::::
         ::                  THERMODYNAMIC                  ::
         :::::::::::::::::::::::::::::::::::::::::::::::::::::
         :: total free energy         -35.249194720103 Eh   ::
         ::.................................................::
         :: total energy              -35.325873862838 Eh   ::
         :: zero point energy           0.113978942701 Eh   ::
         :: G(RRHO) w/o ZPVE           -0.037299799966 Eh   ::
         :: G(RRHO) contrib.            0.076679142735 Eh   ::
         :::::::::::::::::::::::::::::::::::::::::::::::::::::

           -------------------------------------------------
          | TOTAL ENERGY              -35.325873862838 Eh   |
          | TOTAL ENTHALPY            -35.199643443744 Eh   |
          | TOTAL FREE ENERGY         -35.249194720103 Eh   |
          | GRADIENT NORM               0.000376583701 Eh/α |
          | HOMO-LUMO GAP               1.908771762040 eV   |
           -------------------------------------------------

 * finished run on 2025/10/18 at 04:09:51.256
normal termination of xtb
