   * xtb version 6.7.1 (edcfbbe) compiled by 'albert@albert-system' on 2024-07-22

   ID    Z sym.   atoms
    1    6 C      1, 2, 4, 6, 8, 10
    2    7 N      3
    3    1 H      5, 7, 9, 11
    4    8 O      12-14

          program call               : xtb tb_lite_results_shiftn0p05_gp630_b0_rot270_solute.xyz --ohess --chrg -1
          :  Hamiltonian                  GFN2-xTB          :
 * total energy  :   -30.1403836 Eh     change       -0.4709513E-09 Eh
 * total energy  :   -30.1442571 Eh     change       -0.3873491E-02 Eh
 * total energy  :   -30.1445175 Eh     change       -0.2604245E-03 Eh
 * total energy  :   -30.1445232 Eh     change       -0.5731175E-05 Eh
 * total energy  :   -30.1445326 Eh     change       -0.9334371E-05 Eh
 * total energy  :   -30.1445333 Eh     change       -0.7098186E-06 Eh
   *** GEOMETRY OPTIMIZATION CONVERGED AFTER 6 ITERATIONS ***

 final structure:
================
14
 xtb: 6.7.1 (edcfbbe)
C           -4.07747307305968       -1.94984007378231        1.93239816640052
C           -3.79148671325823       -2.42099585537380        0.69249628880736
N           -7.20415436339789       -3.88192836668380        2.61646150455399
C           -5.22809596432896       -2.37234112095277        2.70989004139395
H           -3.43793224464849       -1.21578787289318        2.40595521536323
C           -4.62130532274886       -3.37438560489447        0.07590930279821
H           -2.91410427692108       -2.06345876707779        0.16242899634012
C           -5.72405370982767       -3.81939364875290        0.74809635581956
H           -4.38614942228612       -3.74457448853039       -0.91277656499255
C           -6.05591378119948       -3.35681247605572        2.03065648434459
H           -6.38344398538774       -4.55167450556493        0.30231673535928
O           -5.43314241848846       -1.90695062970104        3.83770724324484
O           -7.85442347565625       -4.73447456588174        1.98167284230519
O           -7.57311961844017       -3.51786023543378        3.72972049951069

          :  Hamiltonian                  GFN2-xTB          :
         :: gradient norm              0.000356497808 Eh/a0 ::
         :: HOMO-LUMO gap              2.002679393653 eV    ::
         :: SCC energy               -30.477011722649 Eh    ::
         :: -> dispersion             -0.013093938963 Eh    ::
         :: repulsion energy           0.332478439267 Eh    ::

    * Orbital Energies and Occupations

         #    Occupation            Energy/Eh            Energy/eV
      -------------------------------------------------------------
         1        2.0000           -0.5770808             -15.7032
       ...           ...                  ...                  ...
        14        2.0000           -0.3613898              -9.8339
        15        2.0000           -0.3531543              -9.6098
        16        2.0000           -0.3502700              -9.5313
        17        2.0000           -0.3357436              -9.1360
        18        2.0000           -0.3109988              -8.4627
        19        2.0000           -0.3089860              -8.4079
        20        2.0000           -0.2950432              -8.0285
        21        2.0000           -0.2813130              -7.6549
        22        2.0000           -0.2685460              -7.3075
        23        2.0000           -0.2615039              -7.1159
        24        2.0000           -0.2574078              -7.0044
        25        2.0000           -0.2119279              -5.7669
        26        2.0000           -0.2100984              -5.7171 (HOMO)
        27                         -0.1365014              -3.7144 (LUMO)
        28                         -0.0613591              -1.6697
        29                         -0.0533137              -1.4507
        30                          0.0610358               1.6609
        31                          0.1889958               5.1428
        32                          0.2501877               6.8080
        33                          0.2746773               7.4744
        34                          0.2999259               8.1614
        35                          0.3188021               8.6750
        36                          0.3572576               9.7215
        37                          0.4263406              11.6013
       ...                                ...                  ...
        44                          0.8535226              23.2255
      -------------------------------------------------------------
                  HL-Gap            0.0735970 Eh            2.0027 eV

     #   Z          covCN         q      C6AA      α(0)
     1   6 C        2.914    -0.084    30.097     8.996
     2   6 C        2.911    -0.038    28.936     8.821
     3   7 N        2.764     0.500    14.026     5.562
     4   6 C        2.825     0.204    23.681     7.974
     5   1 H        0.925     0.011     2.876     2.652
     6   6 C        2.914    -0.069    29.717     8.939
     7   1 H        0.925    -0.008     3.209     2.801
     8   6 C        2.919    -0.038    28.947     8.823
     9   1 H        0.925    -0.009     3.214     2.804
    10   6 C        2.903    -0.061    29.527     8.910
    11   1 H        0.925     0.035     2.513     2.479
    12   8 O        0.858    -0.490    23.571     6.509
    13   8 O        0.930    -0.509    23.944     6.562
    14   8 O        0.929    -0.443    22.532     6.366

Wiberg/Mayer (AO) data.
largest (>0.10) Wiberg bond orders for each atom

     #   Z sym  total        # sym  WBO       # sym  WBO       # sym  WBO
 ---------------------------------------------------------------------------
     1   6 C    3.986 --     2 C    1.619     4 C    1.134     5 H    0.971
                             8 C    0.105
     2   6 C    3.992 --     1 C    1.619     6 C    1.286     7 H    0.970
     3   7 N    3.898 --    14 O    1.386    13 O    1.323    10 C    1.105
     4   6 C    3.967 --    12 O    1.595     1 C    1.134    10 C    1.127
     5   1 H    0.999 --     1 C    0.971
     6   6 C    3.982 --     8 C    1.533     2 C    1.286     9 H    0.972
     7   1 H    1.000 --     2 C    0.970
     8   6 C    3.991 --     6 C    1.533    10 C    1.322    11 H    0.963
                             1 C    0.105
     9   1 H    0.999 --     6 C    0.972
    10   6 C    3.935 --     8 C    1.322     4 C    1.127     3 N    1.105
    11   1 H    0.999 --     8 C    0.963
    12   8 O    1.940 --     4 C    1.595
    13   8 O    1.788 --     3 N    1.323    14 O    0.274
    14   8 O    1.866 --     3 N    1.386    13 O    0.274
 ---------------------------------------------------------------------------

molecular dipole:
                 x           y           z       tot (Debye)
 q only:       12.370       6.039      -5.644
   full:       12.545       6.004      -5.943      38.442

 projected vibrational frequencies (cm⁻¹)
eigval :       -0.00    -0.00     0.00     0.00     0.00     0.00
eigval :       17.25    94.40   217.28   223.28   362.14   385.40
eigval :      426.31   480.88   539.63   579.77   644.88   658.68
eigval :      737.78   768.53   801.96   838.51   847.74   901.44
eigval :      918.50  1059.50  1088.30  1161.86  1184.26  1214.23
eigval :     1299.36  1347.04  1373.30  1451.87  1510.94  1536.74
eigval :     1606.48  1640.90  2999.50  3047.72  3055.56  3071.44

   temp. (K)  partition function   enthalpy   heat capacity  entropy
                                   cal/mol     cal/K/mol   cal/K/mol   J/K/mol
 298.15  VIB   215.                 3263.405     22.562     19.278
         ROT  0.534E+06              888.752      2.981     29.189
         INT  0.115E+09             4152.157     25.543     48.467
         TR   0.157E+28             1481.254      4.968     40.662
         TOT                        5633.4110    30.5109    89.1287   372.9145

       T/K    H(0)-H(T)+PV         H(T)/Eh          T*S/Eh         G(T)/Eh
   ------------------------------------------------------------------------
    298.15    0.897741E-02    0.100317E+00    0.423479E-01    0.579689E-01
   ------------------------------------------------------------------------

         :::::::::::::::::::::::::::::::::::::::::::::::::::::
         ::                  THERMODYNAMIC                  ::
         :::::::::::::::::::::::::::::::::::::::::::::::::::::
         :: total free energy         -30.086564421465 Eh   ::
         ::.................................................::
         :: total energy              -30.144533283391 Eh   ::
         :: zero point energy           0.091339373183 Eh   ::
         :: G(RRHO) w/o ZPVE           -0.033370511257 Eh   ::
         :: G(RRHO) contrib.            0.057968861926 Eh   ::
         :::::::::::::::::::::::::::::::::::::::::::::::::::::

           -------------------------------------------------
          | TOTAL ENERGY              -30.144533283391 Eh   |
          | TOTAL ENTHALPY            -30.044216498274 Eh   |
          | TOTAL FREE ENERGY         -30.086564421465 Eh   |
          | GRADIENT NORM               0.000356568087 Eh/α |
          | HOMO-LUMO GAP               2.002675637886 eV   |
           -------------------------------------------------

 * finished run on 2025/10/18 at 04:09:49.285
normal termination of xtb
