   * xtb version 6.7.1 (edcfbbe) compiled by 'albert@albert-system' on 2024-07-22

   ID    Z sym.   atoms
    1    6 C      1, 2, 4, 6, 8, 10
    2    7 N      3
    3    1 H      5, 7, 9, 11, 16, 17
    4    8 O      12-15

          program call               : xtb tb_lite_results_shiftn0p05_gp630_b0_rot270_complex.xyz --ohess --chrg -1 --alpb water
      * Solvation model:               ALPB
        Solvent                        water
        Solvent mass                       1.8000E+01 g/mol
          :  Hamiltonian                  GFN2-xTB          :
 * total energy  :   -35.3197965 Eh     change       -0.2239915E-09 Eh
 * total energy  :   -35.3246853 Eh     change       -0.4888848E-02 Eh
 * total energy  :   -35.3255515 Eh     change       -0.8662308E-03 Eh
 * total energy  :   -35.3256581 Eh     change       -0.1065301E-03 Eh
 * total energy  :   -35.3258274 Eh     change       -0.1693135E-03 Eh
 * total energy  :   -35.3258527 Eh     change       -0.2532118E-04 Eh
 * total energy  :   -35.3258674 Eh     change       -0.1474870E-04 Eh
 * total energy  :   -35.3258799 Eh     change       -0.1246054E-04 Eh
 * total energy  :   -35.3258862 Eh     change       -0.6313069E-05 Eh
 * total energy  :   -35.3258973 Eh     change       -0.1108254E-04 Eh
 * total energy  :   -35.3259035 Eh     change       -0.6167482E-05 Eh
 * total energy  :   -35.3259060 Eh     change       -0.2487506E-05 Eh
   *** GEOMETRY OPTIMIZATION CONVERGED AFTER 12 ITERATIONS ***

 final structure:
================
17
 xtb: 6.7.1 (edcfbbe)
C           -4.10813649079037       -1.96249041844079        1.94646209180279
C           -3.78540945239094       -2.42770275035256        0.71210919564749
N           -7.23214623301468       -3.88579826904204        2.52375818499747
C           -5.27362420717954       -2.40213018323722        2.66733873068084
H           -3.49543888804965       -1.23224440487256        2.45425909026971
C           -4.59409077838807       -3.38161995188182        0.06293477109772
H           -2.89659980260758       -2.06487189992350        0.21754815435209
C           -5.71416211163351       -3.83864792146550        0.68648920782210
H           -4.32580978401961       -3.74276162485808       -0.91594941301285
C           -6.08233644910906       -3.37975404383773        1.97013641867475
H           -6.36281149633564       -4.56892349019442        0.22584063269427
O           -5.53120412755583       -1.94145997930498        3.80710358542257
O           -7.91383430994095       -4.71290526990768        1.87650942468051
O           -7.61415965990301       -3.53836399272640        3.65520334731301
O           -6.46261962821929       -2.88411532740065        6.30188673182937
H           -6.04603096638708       -2.46273362602859        5.53150154094706
H           -7.23890166664062       -3.31327951951882        5.92480959261961

          :  Hamiltonian                  GFN2-xTB          :
         :: gradient norm              0.000536801697 Eh/a0 ::
         :: HOMO-LUMO gap              1.911065366338 eV    ::
         :: SCC energy               -35.689628978750 Eh    ::
         :: -> dispersion             -0.014634756119 Eh    ::
         :: -> Gsolv                  -0.099415953633 Eh    ::
         :: repulsion energy           0.363723021759 Eh    ::

    * Orbital Energies and Occupations

         #    Occupation            Energy/Eh            Energy/eV
      -------------------------------------------------------------
         1        2.0000           -0.7366075             -20.0441
       ...           ...                  ...                  ...
        18        2.0000           -0.4970261             -13.5248
        19        2.0000           -0.4862720             -13.2321
        20        2.0000           -0.4788829             -13.0311
        21        2.0000           -0.4547303             -12.3738
        22        2.0000           -0.4501255             -12.2485
        23        2.0000           -0.4452658             -12.1163
        24        2.0000           -0.4369446             -11.8899
        25        2.0000           -0.4235635             -11.5257
        26        2.0000           -0.4210022             -11.4561
        27        2.0000           -0.4204619             -11.4414
        28        2.0000           -0.4139171             -11.2633
        29        2.0000           -0.3719562             -10.1214
        30        2.0000           -0.3674078              -9.9977 (HOMO)
        31                         -0.2971775              -8.0866 (LUMO)
        32                         -0.2104328              -5.7262
        33                         -0.2014128              -5.4807
        34                         -0.0869027              -2.3647
        35                          0.0352509               0.9592
        36                          0.1223935               3.3305
        37                          0.1319969               3.5918
        38                          0.1389705               3.7816
        39                          0.1681103               4.5745
        40                          0.1791493               4.8749
        41                          0.2006707               5.4605
       ...                                ...                  ...
        50                          0.7000350              19.0489
      -------------------------------------------------------------
                  HL-Gap            0.0702302 Eh            1.9111 eV

     #   Z          covCN         q      C6AA      α(0)
     1   6 C        2.913    -0.078    29.947     8.974
     2   6 C        2.913    -0.029    28.721     8.788
     3   7 N        2.765     0.483    14.219     5.600
     4   6 C        2.829     0.204    23.671     7.973
     5   1 H        0.926     0.043     2.406     2.426
     6   6 C        2.914    -0.054    29.334     8.881
     7   1 H        0.926     0.062     2.181     2.310
     8   6 C        2.918    -0.034    28.851     8.808
     9   1 H        0.926     0.059     2.214     2.327
    10   6 C        2.904    -0.047    29.166     8.855
    11   1 H        0.926     0.056     2.248     2.345
    12   8 O        0.857    -0.580    25.639     6.789
    13   8 O        0.930    -0.540    24.658     6.660
    14   8 O        0.929    -0.522    24.228     6.601
    15   8 O        1.609    -0.666    26.833     6.991
    16   1 H        0.804     0.319     0.665     1.281
    17   1 H        0.805     0.324     0.652     1.268

Wiberg/Mayer (AO) data.
largest (>0.10) Wiberg bond orders for each atom

     #   Z sym  total        # sym  WBO       # sym  WBO       # sym  WBO
 ---------------------------------------------------------------------------
     1   6 C    3.987 --     2 C    1.615     4 C    1.168     5 H    0.969
                             8 C    0.114
     2   6 C    3.988 --     1 C    1.615     6 C    1.276     7 H    0.967
     3   7 N    3.884 --    14 O    1.326    13 O    1.300    10 C    1.154
     4   6 C    3.955 --    12 O    1.503     1 C    1.168    10 C    1.143
     5   1 H    0.998 --     1 C    0.969
     6   6 C    3.987 --     8 C    1.576     2 C    1.276     9 H    0.968
     7   1 H    0.996 --     2 C    0.967
     8   6 C    3.987 --     6 C    1.576    10 C    1.268    11 H    0.962
                             1 C    0.114
     9   1 H    0.996 --     6 C    0.968
    10   6 C    3.930 --     8 C    1.268     3 N    1.154     4 C    1.143
    11   1 H    0.997 --     8 C    0.962
    12   8 O    1.871 --     4 C    1.503
    13   8 O    1.755 --     3 N    1.300    14 O    0.236
    14   8 O    1.791 --     3 N    1.326    13 O    0.236
    15   8 O    1.777 --    17 H    0.890    16 H    0.868
    16   1 H    0.898 --    15 O    0.868
    17   1 H    0.895 --    15 O    0.890
 ---------------------------------------------------------------------------

molecular dipole:
                 x           y           z       tot (Debye)
 q only:       13.480       6.144      -7.729
   full:       13.390       6.114      -7.998      42.581

 projected vibrational frequencies (cm⁻¹)
eigval :       -0.00    -0.00    -0.00    -0.00     0.00     0.00
eigval :       18.34    44.95    78.29    99.88   146.06   213.87
eigval :      225.48   244.24   278.21   366.09   381.51   425.61
eigval :      481.33   540.50   581.36   603.49   642.14   654.77
eigval :      728.72   772.97   797.26   847.70   858.99   903.79
eigval :      920.06  1062.67  1094.44  1159.00  1176.21  1214.02
eigval :     1277.77  1345.03  1353.61  1428.68  1435.68  1520.03
eigval :     1522.17  1545.04  1618.20  3073.29  3086.96  3087.69
eigval :     3110.34  3410.47  3591.25

   temp. (K)  partition function   enthalpy   heat capacity  entropy
                                   cal/mol     cal/K/mol   cal/K/mol   J/K/mol
 298.15  VIB  0.130E+05             5379.080     32.315     33.649
         ROT  0.969E+06              888.752      2.981     30.374
         INT  0.126E+11             6267.832     35.296     64.023
         TR   0.189E+28             1481.254      4.968     41.027
         TOT                        7749.0859    40.2645   105.0501   439.5297

       T/K    H(0)-H(T)+PV         H(T)/Eh          T*S/Eh         G(T)/Eh
   ------------------------------------------------------------------------
    298.15    0.123490E-01    0.126185E+00    0.499127E-01    0.762721E-01
   ------------------------------------------------------------------------

         :::::::::::::::::::::::::::::::::::::::::::::::::::::
         ::                  THERMODYNAMIC                  ::
         :::::::::::::::::::::::::::::::::::::::::::::::::::::
         :: total free energy         -35.249633822221 Eh   ::
         ::.................................................::
         :: total energy              -35.325905956794 Eh   ::
         :: zero point energy           0.113835884552 Eh   ::
         :: G(RRHO) w/o ZPVE           -0.037563749979 Eh   ::
         :: G(RRHO) contrib.            0.076272134573 Eh   ::
         :::::::::::::::::::::::::::::::::::::::::::::::::::::

           -------------------------------------------------
          | TOTAL ENERGY              -35.325905956794 Eh   |
          | TOTAL ENTHALPY            -35.199721117825 Eh   |
          | TOTAL FREE ENERGY         -35.249633822221 Eh   |
          | GRADIENT NORM               0.000536982653 Eh/α |
          | HOMO-LUMO GAP               1.911061367180 eV   |
           -------------------------------------------------

 * finished run on 2025/10/18 at 04:09:48.583
normal termination of xtb
