   * xtb version 6.7.1 (edcfbbe) compiled by 'albert@albert-system' on 2024-07-22

   ID    Z sym.   atoms
    1    6 C      1, 2, 5, 8
    2    8 O      3, 15
    3    1 H      4, 6, 7, 9-14, 16, 17

          program call               : xtb tb_lite_results_shiftn0p2_gp201_b0_rot0_complex.xyz --ohess --chrg -1 --alpb water
      * Solvation model:               ALPB
        Solvent                        water
        Solvent mass                       1.8000E+01 g/mol
          :  Hamiltonian                  GFN2-xTB          :
 * total energy  :   -22.5800577 Eh     change       -0.2879474E-10 Eh
 * total energy  :   -22.5835304 Eh     change       -0.3472708E-02 Eh
 * total energy  :   -22.5843474 Eh     change       -0.8169661E-03 Eh
 * total energy  :   -22.5849762 Eh     change       -0.6287509E-03 Eh
 * total energy  :   -22.5853526 Eh     change       -0.3764969E-03 Eh
 * total energy  :   -22.5854062 Eh     change       -0.5355944E-04 Eh
 * total energy  :   -22.5856093 Eh     change       -0.2031397E-03 Eh
 * total energy  :   -22.5856632 Eh     change       -0.5381539E-04 Eh
 * total energy  :   -22.5856955 Eh     change       -0.3233069E-04 Eh
 * total energy  :   -22.5857157 Eh     change       -0.2017610E-04 Eh
 * total energy  :   -22.5857626 Eh     change       -0.4694352E-04 Eh
 * total energy  :   -22.5857840 Eh     change       -0.2134523E-04 Eh
 * total energy  :   -22.5857975 Eh     change       -0.1354589E-04 Eh
 * total energy  :   -22.5858048 Eh     change       -0.7332369E-05 Eh
 * total energy  :   -22.5858103 Eh     change       -0.5483891E-05 Eh
 * total energy  :   -22.5858144 Eh     change       -0.4077636E-05 Eh
   *** GEOMETRY OPTIMIZATION CONVERGED AFTER 16 ITERATIONS ***

 final structure:
================
17
 xtb: 6.7.1 (edcfbbe)
C           -3.71588687314818       -3.85808369435156       -2.76655809463871
C           -4.25242505954835       -2.41051410643740       -2.86573916910067
O           -3.26250945794505       -1.47433990741110       -2.76573961047259
H           -4.52028820262555       -4.57756293955549       -2.90154299261202
C           -5.37100559727590       -2.22700079714678       -1.80506205551228
H           -4.73777720849986       -2.30958452159729       -3.87668240509112
H           -2.95466241170702       -4.01233344814844       -3.52813713036040
C           -6.08645153612676       -0.89448309144179       -1.96886498736751
H           -3.25697205125416       -3.99254444793424       -1.78940382375503
H           -6.08074523964192       -3.05391986001330       -1.88711907005796
H           -4.88991512941019       -2.27091081447949       -0.82477341145265
H           -6.65095399498416       -0.88279996569765       -2.89898124610431
H           -6.76029165389523       -0.70722454018261       -1.13626018965779
H           -5.33966875927221       -0.10415621476228       -2.01279268791676
O           -2.13657380733530       -1.71486318413194       -0.52541412965064
H           -2.60934417404057       -1.63533397773924       -1.47286670368968
H           -1.72721058981380       -0.85220151313638       -0.41171375524384

          :  Hamiltonian                  GFN2-xTB          :
         :: gradient norm              0.000984453955 Eh/a0 ::
         :: HOMO-LUMO gap             11.235618637925 eV    ::
         :: SCC energy               -22.806177988088 Eh    ::
         :: -> dispersion             -0.010093939682 Eh    ::
         :: -> Gsolv                  -0.114257306252 Eh    ::
         :: repulsion energy           0.220363590043 Eh    ::

    * Orbital Energies and Occupations

         #    Occupation            Energy/Eh            Energy/eV
      -------------------------------------------------------------
         1        2.0000           -0.6295623             -17.1313
       ...           ...                  ...                  ...
         8        2.0000           -0.4946951             -13.4613
         9        2.0000           -0.4826750             -13.1343
        10        2.0000           -0.4786508             -13.0248
        11        2.0000           -0.4690902             -12.7646
        12        2.0000           -0.4655007             -12.6669
        13        2.0000           -0.4450511             -12.1105
        14        2.0000           -0.4333863             -11.7930
        15        2.0000           -0.4278042             -11.6411
        16        2.0000           -0.4190247             -11.4022
        17        2.0000           -0.4130394             -11.2394
        18        2.0000           -0.3926508             -10.6846
        19        2.0000           -0.3195207              -8.6946
        20        2.0000           -0.3188586              -8.6766 (HOMO)
        21                          0.0940427               2.5590 (LUMO)
        22                          0.1186895               3.2297
        23                          0.1236154               3.3637
        24                          0.1356739               3.6919
        25                          0.1631831               4.4404
        26                          0.1751548               4.7662
        27                          0.1858379               5.0569
        28                          0.1944017               5.2899
        29                          0.2029312               5.5220
        30                          0.2300208               6.2592
        31                          0.2620546               7.1309
       ...                                ...                  ...
        35                          0.3479285               9.4676
      -------------------------------------------------------------
                  HL-Gap            0.4129012 Eh           11.2356 eV

     #   Z          covCN         q      C6AA      α(0)
     1   6 C        3.751    -0.108    22.623     6.783
     2   6 C        3.718     0.157    18.172     6.089
     3   8 O        0.898    -0.812    31.908     7.575
     4   1 H        0.925     0.015     2.814     2.623
     5   6 C        3.799    -0.067    21.790     6.646
     6   1 H        0.918    -0.086     5.108     3.535
     7   1 H        0.925     0.017     2.782     2.608
     8   6 C        3.752    -0.092    22.324     6.738
     9   1 H        0.925     0.023     2.692     2.566
    10   1 H        0.924     0.005     2.970     2.695
    11   1 H        0.924     0.017     2.782     2.608
    12   1 H        0.925     0.026     2.640     2.541
    13   1 H        0.925     0.036     2.500     2.473
    14   1 H        0.925     0.029     2.594     2.518
    15   8 O        1.580    -0.759    29.360     7.312
    16   1 H        0.819     0.290     0.748     1.358
    17   1 H        0.805     0.309     0.695     1.309

Wiberg/Mayer (AO) data.
largest (>0.10) Wiberg bond orders for each atom

     #   Z sym  total        # sym  WBO       # sym  WBO       # sym  WBO
 ---------------------------------------------------------------------------
     1   6 C    3.996 --     7 H    0.990     4 H    0.989     9 H    0.988
                             2 C    0.974
     2   6 C    3.981 --     3 O    1.086     1 C    0.974     5 C    0.963
                             6 H    0.943
     3   8 O    1.493 --     2 C    1.086    16 H    0.201
     4   1 H    1.000 --     1 C    0.989
     5   6 C    3.996 --     8 C    1.021    10 H    0.980    11 H    0.979
                             2 C    0.963
     6   1 H    0.993 --     2 C    0.943
     7   1 H    0.999 --     1 C    0.990
     8   6 C    3.999 --     5 C    1.021    12 H    0.989    13 H    0.987
                            14 H    0.987
     9   1 H    0.999 --     1 C    0.988
    10   1 H    1.000 --     5 C    0.980
    11   1 H    1.000 --     5 C    0.979
    12   1 H    0.999 --     8 C    0.989
    13   1 H    0.998 --     8 C    0.987
    14   1 H    0.999 --     8 C    0.987
    15   8 O    1.703 --    17 H    0.903    16 H    0.707
    16   1 H    0.916 --    15 O    0.707     3 O    0.201
    17   1 H    0.905 --    15 O    0.903
 ---------------------------------------------------------------------------

molecular dipole:
                 x           y           z       tot (Debye)
 q only:        5.977       3.586       4.218
   full:        5.864       3.555       4.088      20.292

 projected vibrational frequencies (cm⁻¹)
eigval :       -0.00    -0.00    -0.00     0.00     0.00     0.00
eigval :       50.22    78.38   105.11   110.02   190.58   211.67
eigval :      249.76   367.13   380.05   471.10   519.38   692.90
eigval :      805.27   842.75   937.31   980.90  1007.82  1051.27
eigval :     1069.84  1102.72  1138.49  1157.26  1258.50  1290.07
eigval :     1326.08  1345.60  1372.61  1391.68  1477.76  1481.98
eigval :     1488.33  1507.33  1508.57  1558.02  1768.58  2503.26
eigval :     2935.44  2965.65  2998.15  3012.63  3014.73  3015.23
eigval :     3025.92  3027.19  3630.41

   temp. (K)  partition function   enthalpy   heat capacity  entropy
                                   cal/mol     cal/K/mol   cal/K/mol   J/K/mol
 298.15  VIB   669.                 4005.156     24.088     25.568
         ROT  0.239E+06              888.752      2.981     27.590
         INT  0.160E+09             4893.908     27.069     53.157
         TR   0.842E+27             1481.254      4.968     39.423
         TOT                        6375.1621    32.0374    92.5805   387.3567

       T/K    H(0)-H(T)+PV         H(T)/Eh          T*S/Eh         G(T)/Eh
   ------------------------------------------------------------------------
    298.15    0.101595E-01    0.152371E+00    0.439880E-01    0.108383E+00
   ------------------------------------------------------------------------

         :::::::::::::::::::::::::::::::::::::::::::::::::::::
         ::                  THERMODYNAMIC                  ::
         :::::::::::::::::::::::::::::::::::::::::::::::::::::
         :: total free energy         -22.477431387852 Eh   ::
         ::.................................................::
         :: total energy              -22.585814398386 Eh   ::
         :: zero point energy           0.142211509446 Eh   ::
         :: G(RRHO) w/o ZPVE           -0.033828498911 Eh   ::
         :: G(RRHO) contrib.            0.108383010534 Eh   ::
         :::::::::::::::::::::::::::::::::::::::::::::::::::::

           -------------------------------------------------
          | TOTAL ENERGY              -22.585814398386 Eh   |
          | TOTAL ENTHALPY            -22.433443421530 Eh   |
          | TOTAL FREE ENERGY         -22.477431387852 Eh   |
          | GRADIENT NORM               0.000984544568 Eh/α |
          | HOMO-LUMO GAP              11.235614788301 eV   |
           -------------------------------------------------

 * finished run on 2025/10/18 at 00:56:42.028
normal termination of xtb
