   * xtb version 6.7.1 (edcfbbe) compiled by 'albert@albert-system' on 2024-07-22

   ID    Z sym.   atoms
    1    6 C      1, 2, 5, 8
    2    8 O      3, 15
    3    1 H      4, 6, 7, 9-14, 16, 17

          program call               : xtb tb_lite_results_shiftn0p25_gp201_b0_rot0_complex.xyz --ohess --chrg -1 --alpb water
      * Solvation model:               ALPB
        Solvent                        water
        Solvent mass                       1.8000E+01 g/mol
          :  Hamiltonian                  GFN2-xTB          :
 * total energy  :   -22.5799102 Eh     change       -0.2917488E-10 Eh
 * total energy  :   -22.5838529 Eh     change       -0.3942708E-02 Eh
 * total energy  :   -22.5845370 Eh     change       -0.6841704E-03 Eh
 * total energy  :   -22.5849738 Eh     change       -0.4367575E-03 Eh
 * total energy  :   -22.5854008 Eh     change       -0.4270249E-03 Eh
 * total energy  :   -22.5854893 Eh     change       -0.8847239E-04 Eh
 * total energy  :   -22.5856388 Eh     change       -0.1495101E-03 Eh
 * total energy  :   -22.5856755 Eh     change       -0.3671379E-04 Eh
 * total energy  :   -22.5857064 Eh     change       -0.3091765E-04 Eh
 * total energy  :   -22.5857242 Eh     change       -0.1773054E-04 Eh
 * total energy  :   -22.5857767 Eh     change       -0.5254130E-04 Eh
 * total energy  :   -22.5857931 Eh     change       -0.1635919E-04 Eh
 * total energy  :   -22.5858000 Eh     change       -0.6986666E-05 Eh
 * total energy  :   -22.5858055 Eh     change       -0.5441163E-05 Eh
 * total energy  :   -22.5858097 Eh     change       -0.4216635E-05 Eh
 * total energy  :   -22.5858147 Eh     change       -0.4988623E-05 Eh
 * total energy  :   -22.5858184 Eh     change       -0.3740403E-05 Eh
 * total energy  :   -22.5858216 Eh     change       -0.3119258E-05 Eh
   *** GEOMETRY OPTIMIZATION CONVERGED AFTER 18 ITERATIONS ***

 final structure:
================
17
 xtb: 6.7.1 (edcfbbe)
C           -3.73496126055992       -3.84737023629113       -2.81037407395033
C           -4.25767095610783       -2.39312950681942       -2.87462510418914
O           -3.25810197548175       -1.46877612496641       -2.74874809241407
H           -4.54289095891340       -4.55549348949011       -2.97972422452540
C           -5.37827623576000       -2.22381012132242       -1.81444640868138
H           -4.73720715442939       -2.26195157716594       -3.88392783135794
H           -2.96280829490461       -3.98508140520281       -3.56404749835137
C           -6.08635019486550       -0.88395163329797       -1.95432259368244
H           -3.29297534540502       -4.01482553456543       -1.83048711183057
H           -6.09232789499275       -3.04510882400475       -1.91462516687191
H           -4.90063842791677       -2.28872841971339       -0.83380993332087
H           -6.63442996723708       -0.84516500103464       -2.89389762284315
H           -6.77415614712395       -0.71675670570405       -1.12875537966810
H           -5.33569624548595       -0.09569073704778       -1.96403410877639
O           -2.13275795870020       -1.76726628160630       -0.51585441817499
H           -2.60712623740603       -1.66571006787313       -1.46236025345685
H           -1.69606184553044       -0.91904135806154       -0.39533547719333

          :  Hamiltonian                  GFN2-xTB          :
         :: gradient norm              0.000851447072 Eh/a0 ::
         :: HOMO-LUMO gap             11.231502714847 eV    ::
         :: SCC energy               -22.805975052605 Eh    ::
         :: -> dispersion             -0.010079601574 Eh    ::
         :: -> Gsolv                  -0.114298183595 Eh    ::
         :: repulsion energy           0.220153501747 Eh    ::

    * Orbital Energies and Occupations

         #    Occupation            Energy/Eh            Energy/eV
      -------------------------------------------------------------
         1        2.0000           -0.6292305             -17.1222
       ...           ...                  ...                  ...
         8        2.0000           -0.4947302             -13.4623
         9        2.0000           -0.4826680             -13.1341
        10        2.0000           -0.4786812             -13.0256
        11        2.0000           -0.4690503             -12.7635
        12        2.0000           -0.4652706             -12.6607
        13        2.0000           -0.4450992             -12.1118
        14        2.0000           -0.4334606             -11.7951
        15        2.0000           -0.4278368             -11.6420
        16        2.0000           -0.4191052             -11.4044
        17        2.0000           -0.4129789             -11.2377
        18        2.0000           -0.3923241             -10.6757
        19        2.0000           -0.3196178              -8.6972
        20        2.0000           -0.3189702              -8.6796 (HOMO)
        21                          0.0937799               2.5519 (LUMO)
        22                          0.1180961               3.2136
        23                          0.1238426               3.3699
        24                          0.1358916               3.6978
        25                          0.1630512               4.4368
        26                          0.1751206               4.7653
        27                          0.1853427               5.0434
        28                          0.1941043               5.2818
        29                          0.2026655               5.5148
        30                          0.2298903               6.2556
        31                          0.2621120               7.1324
       ...                                ...                  ...
        35                          0.3469546               9.4411
      -------------------------------------------------------------
                  HL-Gap            0.4127501 Eh           11.2315 eV

     #   Z          covCN         q      C6AA      α(0)
     1   6 C        3.751    -0.108    22.621     6.783
     2   6 C        3.719     0.156    18.179     6.090
     3   8 O        0.900    -0.811    31.898     7.573
     4   1 H        0.925     0.015     2.811     2.622
     5   6 C        3.799    -0.067    21.789     6.646
     6   1 H        0.919    -0.085     5.074     3.523
     7   1 H        0.925     0.017     2.777     2.606
     8   6 C        3.752    -0.092    22.325     6.738
     9   1 H        0.925     0.023     2.695     2.567
    10   1 H        0.924     0.005     2.965     2.693
    11   1 H        0.924     0.017     2.782     2.608
    12   1 H        0.925     0.026     2.640     2.541
    13   1 H        0.925     0.036     2.497     2.471
    14   1 H        0.925     0.029     2.595     2.519
    15   8 O        1.579    -0.760    29.390     7.315
    16   1 H        0.820     0.290     0.749     1.358
    17   1 H        0.805     0.309     0.696     1.310

Wiberg/Mayer (AO) data.
largest (>0.10) Wiberg bond orders for each atom

     #   Z sym  total        # sym  WBO       # sym  WBO       # sym  WBO
 ---------------------------------------------------------------------------
     1   6 C    3.996 --     7 H    0.990     4 H    0.989     9 H    0.988
                             2 C    0.975
     2   6 C    3.981 --     3 O    1.085     1 C    0.975     5 C    0.963
                             6 H    0.943
     3   8 O    1.494 --     2 C    1.085    16 H    0.203
     4   1 H    1.000 --     1 C    0.989
     5   6 C    3.996 --     8 C    1.021    10 H    0.980    11 H    0.979
                             2 C    0.963
     6   1 H    0.993 --     2 C    0.943
     7   1 H    0.999 --     1 C    0.990
     8   6 C    3.999 --     5 C    1.021    12 H    0.989    14 H    0.987
                            13 H    0.987
     9   1 H    0.999 --     1 C    0.988
    10   1 H    1.000 --     5 C    0.980
    11   1 H    1.000 --     5 C    0.979
    12   1 H    0.999 --     8 C    0.989
    13   1 H    0.998 --     8 C    0.987
    14   1 H    0.999 --     8 C    0.987
    15   8 O    1.701 --    17 H    0.904    16 H    0.705
    16   1 H    0.916 --    15 O    0.705     3 O    0.203
    17   1 H    0.905 --    15 O    0.904
 ---------------------------------------------------------------------------

molecular dipole:
                 x           y           z       tot (Debye)
 q only:        5.976       3.588       4.188
   full:        5.867       3.560       4.058      20.264

 projected vibrational frequencies (cm⁻¹)
eigval :       -0.00    -0.00    -0.00     0.00     0.00     0.00
eigval :       51.73   101.39   104.92   123.60   193.91   214.48
eigval :      251.26   366.74   380.64   470.69   519.48   688.30
eigval :      805.52   842.89   937.54   980.50  1006.80  1051.17
eigval :     1070.21  1101.88  1137.79  1156.78  1258.39  1289.87
eigval :     1324.28  1345.22  1372.57  1391.64  1477.40  1481.95
eigval :     1487.99  1507.58  1508.76  1556.59  1747.83  2512.05
eigval :     2934.88  2967.12  2998.51  3009.96  3013.15  3015.17
eigval :     3024.32  3025.89  3630.32

   temp. (K)  partition function   enthalpy   heat capacity  entropy
                                   cal/mol     cal/K/mol   cal/K/mol   J/K/mol
 298.15  VIB   478.                 3953.656     24.193     24.872
         ROT  0.240E+06              888.752      2.981     27.596
         INT  0.114E+09             4842.408     27.173     52.467
         TR   0.842E+27             1481.254      4.968     39.423
         TOT                        6323.6621    32.1416    91.8906   384.4702

       T/K    H(0)-H(T)+PV         H(T)/Eh          T*S/Eh         G(T)/Eh
   ------------------------------------------------------------------------
    298.15    0.100774E-01    0.152325E+00    0.436602E-01    0.108665E+00
   ------------------------------------------------------------------------

         :::::::::::::::::::::::::::::::::::::::::::::::::::::
         ::                  THERMODYNAMIC                  ::
         :::::::::::::::::::::::::::::::::::::::::::::::::::::
         :: total free energy         -22.477156331522 Eh   ::
         ::.................................................::
         :: total energy              -22.585821551286 Eh   ::
         :: zero point energy           0.142248001640 Eh   ::
         :: G(RRHO) w/o ZPVE           -0.033582781876 Eh   ::
         :: G(RRHO) contrib.            0.108665219764 Eh   ::
         :::::::::::::::::::::::::::::::::::::::::::::::::::::

           -------------------------------------------------
          | TOTAL ENERGY              -22.585821551286 Eh   |
          | TOTAL ENTHALPY            -22.433496152569 Eh   |
          | TOTAL FREE ENERGY         -22.477156331522 Eh   |
          | GRADIENT NORM               0.000851330303 Eh/α |
          | HOMO-LUMO GAP              11.231501289795 eV   |
           -------------------------------------------------

 * finished run on 2025/10/18 at 00:56:34.333
normal termination of xtb
