   * xtb version 6.7.1 (edcfbbe) compiled by 'albert@albert-system' on 2024-07-22

   ID    Z sym.   atoms
    1    6 C      1, 2, 5, 8
    2    8 O      3, 15
    3    1 H      4, 6, 7, 9-14, 16, 17

          program call               : xtb tb_lite_results_shiftn0p2_gp201_b0_rot90_complex.xyz --ohess --chrg -1 --alpb water
      * Solvation model:               ALPB
        Solvent                        water
        Solvent mass                       1.8000E+01 g/mol
          :  Hamiltonian                  GFN2-xTB          :
 * total energy  :   -22.5802018 Eh     change       -0.1852385E-10 Eh
 * total energy  :   -22.5836075 Eh     change       -0.3405664E-02 Eh
 * total energy  :   -22.5845377 Eh     change       -0.9302580E-03 Eh
 * total energy  :   -22.5850803 Eh     change       -0.5425788E-03 Eh
 * total energy  :   -22.5854808 Eh     change       -0.4004432E-03 Eh
 * total energy  :   -22.5856181 Eh     change       -0.1373186E-03 Eh
 * total energy  :   -22.5856251 Eh     change       -0.7016405E-05 Eh
 * total energy  :   -22.5857353 Eh     change       -0.1101915E-03 Eh
 * total energy  :   -22.5857458 Eh     change       -0.1054819E-04 Eh
 * total energy  :   -22.5857615 Eh     change       -0.1568015E-04 Eh
 * total energy  :   -22.5857735 Eh     change       -0.1198467E-04 Eh
 * total energy  :   -22.5857894 Eh     change       -0.1584958E-04 Eh
 * total energy  :   -22.5858014 Eh     change       -0.1209316E-04 Eh
 * total energy  :   -22.5858090 Eh     change       -0.7587502E-05 Eh
 * total energy  :   -22.5858116 Eh     change       -0.2569997E-05 Eh
 * total energy  :   -22.5858215 Eh     change       -0.9917697E-05 Eh
 * total energy  :   -22.5858257 Eh     change       -0.4205794E-05 Eh
 * total energy  :   -22.5858287 Eh     change       -0.2921771E-05 Eh
   *** GEOMETRY OPTIMIZATION CONVERGED AFTER 18 ITERATIONS ***

 final structure:
================
17
 xtb: 6.7.1 (edcfbbe)
C           -3.74947624559685       -3.89228212726093       -2.79959844537495
C           -4.25057546427502       -2.43058251644593       -2.87750145179435
O           -3.23313980278094       -1.52181752582134       -2.79156090777570
H           -4.57255113412085       -4.58977130850205       -2.93649037219540
C           -5.34245023909833       -2.22560432569068       -1.79419982312835
H           -4.75227931516696       -2.30929735547858       -3.87761606666689
H           -2.99847258756250       -4.05659017272284       -3.56930593726474
C           -6.03075319871881       -0.87643467257921       -1.93825174873197
H           -3.28817091743788       -4.04959503259645       -1.82700659488675
H           -6.07235350412998       -3.03612932771549       -1.86390072248187
H           -4.84254595552760       -2.28191054973441       -0.82417308955571
H           -6.60416992967703       -0.84314152058238       -2.86247141930865
H           -6.69169774446766       -0.68274474455350       -1.09688918633110
H           -5.26666916926811       -0.10269860491998       -1.98094210693682
O           -2.07409731470288       -1.81891905772710       -0.57605073195603
H           -2.58085840040434       -1.69267578188762       -1.50154025476529
H           -1.18836750941057       -1.49466240446154       -0.76360069524042

          :  Hamiltonian                  GFN2-xTB          :
         :: gradient norm              0.000776755813 Eh/a0 ::
         :: HOMO-LUMO gap             11.235267300556 eV    ::
         :: SCC energy               -22.806131511634 Eh    ::
         :: -> dispersion             -0.010091186289 Eh    ::
         :: -> Gsolv                  -0.114282099610 Eh    ::
         :: repulsion energy           0.220302858996 Eh    ::

    * Orbital Energies and Occupations

         #    Occupation            Energy/Eh            Energy/eV
      -------------------------------------------------------------
         1        2.0000           -0.6293605             -17.1258
       ...           ...                  ...                  ...
         8        2.0000           -0.4941662             -13.4469
         9        2.0000           -0.4824276             -13.1275
        10        2.0000           -0.4790258             -13.0350
        11        2.0000           -0.4686752             -12.7533
        12        2.0000           -0.4654584             -12.6658
        13        2.0000           -0.4451065             -12.1120
        14        2.0000           -0.4333787             -11.7928
        15        2.0000           -0.4276018             -11.6356
        16        2.0000           -0.4187726             -11.3954
        17        2.0000           -0.4128402             -11.2340
        18        2.0000           -0.3924844             -10.6800
        19        2.0000           -0.3195594              -8.6957
        20        2.0000           -0.3189922              -8.6802 (HOMO)
        21                          0.0938962               2.5550 (LUMO)
        22                          0.1184883               3.2242
        23                          0.1238304               3.3696
        24                          0.1362712               3.7081
        25                          0.1634611               4.4480
        26                          0.1756801               4.7805
        27                          0.1864145               5.0726
        28                          0.1939312               5.2771
        29                          0.2034037               5.5349
        30                          0.2293073               6.2398
        31                          0.2624264               7.1410
       ...                                ...                  ...
        35                          0.3472746               9.4498
      -------------------------------------------------------------
                  HL-Gap            0.4128884 Eh           11.2353 eV

     #   Z          covCN         q      C6AA      α(0)
     1   6 C        3.751    -0.108    22.624     6.783
     2   6 C        3.719     0.157    18.176     6.090
     3   8 O        0.899    -0.812    31.904     7.574
     4   1 H        0.925     0.014     2.820     2.626
     5   6 C        3.799    -0.067    21.793     6.647
     6   1 H        0.919    -0.086     5.088     3.528
     7   1 H        0.925     0.018     2.768     2.602
     8   6 C        3.752    -0.092    22.323     6.738
     9   1 H        0.925     0.023     2.686     2.563
    10   1 H        0.924     0.006     2.961     2.691
    11   1 H        0.924     0.017     2.783     2.609
    12   1 H        0.925     0.027     2.635     2.539
    13   1 H        0.925     0.036     2.504     2.475
    14   1 H        0.925     0.029     2.599     2.521
    15   8 O        1.579    -0.760    29.378     7.314
    16   1 H        0.820     0.290     0.749     1.358
    17   1 H        0.805     0.309     0.695     1.310

Wiberg/Mayer (AO) data.
largest (>0.10) Wiberg bond orders for each atom

     #   Z sym  total        # sym  WBO       # sym  WBO       # sym  WBO
 ---------------------------------------------------------------------------
     1   6 C    3.996 --     7 H    0.990     4 H    0.989     9 H    0.988
                             2 C    0.974
     2   6 C    3.981 --     3 O    1.085     1 C    0.974     5 C    0.963
                             6 H    0.943
     3   8 O    1.494 --     2 C    1.085    16 H    0.203
     4   1 H    1.000 --     1 C    0.989
     5   6 C    3.996 --     8 C    1.021    10 H    0.980    11 H    0.979
                             2 C    0.963
     6   1 H    0.993 --     2 C    0.943
     7   1 H    0.999 --     1 C    0.990
     8   6 C    3.999 --     5 C    1.021    12 H    0.989    14 H    0.987
                            13 H    0.987
     9   1 H    0.999 --     1 C    0.988
    10   1 H    1.000 --     5 C    0.980
    11   1 H    1.000 --     5 C    0.979
    12   1 H    0.999 --     8 C    0.989
    13   1 H    0.998 --     8 C    0.987
    14   1 H    0.999 --     8 C    0.987
    15   8 O    1.702 --    17 H    0.903    16 H    0.706
    16   1 H    0.916 --    15 O    0.706     3 O    0.203
    17   1 H    0.905 --    15 O    0.903
 ---------------------------------------------------------------------------

molecular dipole:
                 x           y           z       tot (Debye)
 q only:        6.174       3.393       4.101
   full:        6.131       3.285       3.929      20.304

 projected vibrational frequencies (cm⁻¹)
eigval :       -0.00    -0.00    -0.00     0.00     0.00     0.00
eigval :       46.09   100.82   105.08   189.87   212.66   231.91
eigval :      250.30   366.55   382.55   469.45   520.02   676.62
eigval :      805.66   842.68   936.94   980.72  1006.34  1048.47
eigval :     1081.72  1103.19  1138.37  1157.34  1259.29  1290.21
eigval :     1325.26  1346.10  1371.46  1390.70  1476.79  1482.41
eigval :     1488.05  1507.01  1508.15  1553.58  1761.24  2508.56
eigval :     2934.08  2967.93  2999.59  3012.21  3014.04  3015.08
eigval :     3024.78  3026.87  3627.90

   temp. (K)  partition function   enthalpy   heat capacity  entropy
                                   cal/mol     cal/K/mol   cal/K/mol   J/K/mol
 298.15  VIB   361.                 3858.220     23.986     23.799
         ROT  0.239E+06              888.752      2.981     27.587
         INT  0.862E+08             4746.973     26.967     51.386
         TR   0.842E+27             1481.254      4.968     39.423
         TOT                        6228.2265    31.9348    90.8094   379.9466

       T/K    H(0)-H(T)+PV         H(T)/Eh          T*S/Eh         G(T)/Eh
   ------------------------------------------------------------------------
    298.15    0.992531E-02    0.152412E+00    0.431465E-01    0.109266E+00
   ------------------------------------------------------------------------

         :::::::::::::::::::::::::::::::::::::::::::::::::::::
         ::                  THERMODYNAMIC                  ::
         :::::::::::::::::::::::::::::::::::::::::::::::::::::
         :: total free energy         -22.476562741668 Eh   ::
         ::.................................................::
         :: total energy              -22.585828652234 Eh   ::
         :: zero point energy           0.142487080536 Eh   ::
         :: G(RRHO) w/o ZPVE           -0.033221169969 Eh   ::
         :: G(RRHO) contrib.            0.109265910567 Eh   ::
         :::::::::::::::::::::::::::::::::::::::::::::::::::::

           -------------------------------------------------
          | TOTAL ENERGY              -22.585828652234 Eh   |
          | TOTAL ENTHALPY            -22.433416261074 Eh   |
          | TOTAL FREE ENERGY         -22.476562741668 Eh   |
          | GRADIENT NORM               0.000776790983 Eh/α |
          | HOMO-LUMO GAP              11.235265673236 eV   |
           -------------------------------------------------

 * finished run on 2025/10/18 at 00:56:37.598
normal termination of xtb
