   * xtb version 6.7.1 (edcfbbe) compiled by 'albert@albert-system' on 2024-07-22

   ID    Z sym.   atoms
    1    6 C      1, 2, 5, 8
    2    8 O      3, 15
    3    1 H      4, 6, 7, 9-14, 16, 17

          program call               : xtb tb_lite_results_shiftn0p25_gp169_b0_rot90_complex.xyz --ohess --chrg -1 --alpb water
      * Solvation model:               ALPB
        Solvent                        water
        Solvent mass                       1.8000E+01 g/mol
          :  Hamiltonian                  GFN2-xTB          :
 * total energy  :   -22.5800324 Eh     change       -0.2916423E-10 Eh
 * total energy  :   -22.5839688 Eh     change       -0.3936430E-02 Eh
 * total energy  :   -22.5845678 Eh     change       -0.5989254E-03 Eh
 * total energy  :   -22.5848640 Eh     change       -0.2962474E-03 Eh
 * total energy  :   -22.5851931 Eh     change       -0.3291084E-03 Eh
 * total energy  :   -22.5853258 Eh     change       -0.1326749E-03 Eh
 * total energy  :   -22.5854229 Eh     change       -0.9709251E-04 Eh
 * total energy  :   -22.5854808 Eh     change       -0.5786159E-04 Eh
 * total energy  :   -22.5855387 Eh     change       -0.5793453E-04 Eh
 * total energy  :   -22.5856168 Eh     change       -0.7806939E-04 Eh
 * total energy  :   -22.5857051 Eh     change       -0.8838383E-04 Eh
 * total energy  :   -22.5857691 Eh     change       -0.6399852E-04 Eh
 * total energy  :   -22.5858096 Eh     change       -0.4050087E-04 Eh
 * total energy  :   -22.5858219 Eh     change       -0.1229757E-04 Eh
 * total energy  :   -22.5858345 Eh     change       -0.1257462E-04 Eh
 * total energy  :   -22.5858423 Eh     change       -0.7754308E-05 Eh
 * total energy  :   -22.5858484 Eh     change       -0.6110206E-05 Eh
 * total energy  :   -22.5858541 Eh     change       -0.5697070E-05 Eh
 * total energy  :   -22.5858582 Eh     change       -0.4106338E-05 Eh
   *** GEOMETRY OPTIMIZATION CONVERGED AFTER 19 ITERATIONS ***

 final structure:
================
17
 xtb: 6.7.1 (edcfbbe)
C           -3.85164333164371       -4.00712749136576       -2.87811121082719
C           -4.28844665861547       -2.52478482088611       -2.95596483656780
O           -3.22719410660607       -1.66668971101749       -3.03356426202987
H           -4.71846503513119       -4.66402539275686       -2.88406128280385
C           -5.22625046961858       -2.22396474092507       -1.75657605949757
H           -4.90490971720896       -2.41382366659998       -3.89154447395628
H           -3.21065764113753       -4.23839126665134       -3.72628775267134
C           -5.86124895294176       -0.84587547412116       -1.87211578192087
H           -3.28105459286869       -4.15366387992331       -1.96331490567986
H           -5.99772822537508       -2.99657699466162       -1.70285564291571
H           -4.61300537056888       -2.27237507237657       -0.85324483181048
H           -6.54166795796754       -0.81513365486327       -2.72112611383734
H           -6.40355124922361       -0.58765228655995       -0.96554036612376
H           -5.07094253521635       -0.11596957650793       -2.03936346026119
O           -1.78402886876753       -1.95928698677081       -0.98974247639573
H           -2.40981627466040       -1.83760834369431       -1.83831119023361
H           -0.93535559628870       -1.62074966353193       -1.28924239000058

          :  Hamiltonian                  GFN2-xTB          :
         :: gradient norm              0.000659622812 Eh/a0 ::
         :: HOMO-LUMO gap             11.227046172618 eV    ::
         :: SCC energy               -22.805921970235 Eh    ::
         :: -> dispersion             -0.010079830070 Eh    ::
         :: -> Gsolv                  -0.114347354344 Eh    ::
         :: repulsion energy           0.220063785246 Eh    ::

    * Orbital Energies and Occupations

         #    Occupation            Energy/Eh            Energy/eV
      -------------------------------------------------------------
         1        2.0000           -0.6295110             -17.1299
       ...           ...                  ...                  ...
         8        2.0000           -0.4943320             -13.4515
         9        2.0000           -0.4823946             -13.1266
        10        2.0000           -0.4789284             -13.0323
        11        2.0000           -0.4687101             -12.7543
        12        2.0000           -0.4655076             -12.6671
        13        2.0000           -0.4450668             -12.1109
        14        2.0000           -0.4333606             -11.7923
        15        2.0000           -0.4275588             -11.6345
        16        2.0000           -0.4188737             -11.3981
        17        2.0000           -0.4128237             -11.2335
        18        2.0000           -0.3926833             -10.6855
        19        2.0000           -0.3193991              -8.6913
        20        2.0000           -0.3187844              -8.6746 (HOMO)
        21                          0.0938019               2.5525 (LUMO)
        22                          0.1185161               3.2250
        23                          0.1234151               3.3583
        24                          0.1359479               3.6993
        25                          0.1630751               4.4375
        26                          0.1752888               4.7699
        27                          0.1856605               5.0521
        28                          0.1936771               5.2702
        29                          0.2029794               5.5234
        30                          0.2291021               6.2342
        31                          0.2619611               7.1283
       ...                                ...                  ...
        35                          0.3473001               9.4505
      -------------------------------------------------------------
                  HL-Gap            0.4125864 Eh           11.2270 eV

     #   Z          covCN         q      C6AA      α(0)
     1   6 C        3.751    -0.108    22.623     6.783
     2   6 C        3.718     0.157    18.176     6.090
     3   8 O        0.898    -0.812    31.930     7.577
     4   1 H        0.925     0.014     2.819     2.626
     5   6 C        3.799    -0.067    21.790     6.646
     6   1 H        0.918    -0.086     5.102     3.533
     7   1 H        0.925     0.018     2.769     2.602
     8   6 C        3.752    -0.092    22.322     6.738
     9   1 H        0.925     0.023     2.687     2.563
    10   1 H        0.924     0.006     2.963     2.692
    11   1 H        0.924     0.016     2.790     2.612
    12   1 H        0.925     0.027     2.636     2.539
    13   1 H        0.925     0.036     2.503     2.474
    14   1 H        0.925     0.029     2.599     2.521
    15   8 O        1.580    -0.759    29.353     7.311
    16   1 H        0.819     0.290     0.750     1.359
    17   1 H        0.805     0.309     0.693     1.308

Wiberg/Mayer (AO) data.
largest (>0.10) Wiberg bond orders for each atom

     #   Z sym  total        # sym  WBO       # sym  WBO       # sym  WBO
 ---------------------------------------------------------------------------
     1   6 C    3.996 --     7 H    0.990     4 H    0.989     9 H    0.988
                             2 C    0.974
     2   6 C    3.981 --     3 O    1.086     1 C    0.974     5 C    0.963
                             6 H    0.943
     3   8 O    1.492 --     2 C    1.086    16 H    0.201
     4   1 H    1.000 --     1 C    0.989
     5   6 C    3.996 --     8 C    1.021    10 H    0.980    11 H    0.979
                             2 C    0.963
     6   1 H    0.993 --     2 C    0.943
     7   1 H    0.999 --     1 C    0.990
     8   6 C    3.999 --     5 C    1.021    12 H    0.989    13 H    0.987
                            14 H    0.987
     9   1 H    0.999 --     1 C    0.988
    10   1 H    1.000 --     5 C    0.980
    11   1 H    1.000 --     5 C    0.979
    12   1 H    0.999 --     8 C    0.989
    13   1 H    0.998 --     8 C    0.987
    14   1 H    0.999 --     8 C    0.987
    15   8 O    1.703 --    17 H    0.903    16 H    0.708
    16   1 H    0.916 --    15 O    0.708     3 O    0.201
    17   1 H    0.904 --    15 O    0.903
 ---------------------------------------------------------------------------

molecular dipole:
                 x           y           z       tot (Debye)
 q only:        6.018       3.667       4.562
   full:        5.942       3.566       4.403      20.869

 projected vibrational frequencies (cm⁻¹)
eigval :       -0.00    -0.00    -0.00     0.00     0.00     0.00
eigval :       47.30   104.18   107.49   195.80   216.49   234.15
eigval :      251.85   366.05   382.28   469.62   520.30   682.11
eigval :      806.21   843.15   937.10   981.12  1006.94  1048.12
eigval :     1077.10  1102.64  1138.58  1157.06  1259.42  1290.50
eigval :     1326.63  1346.29  1371.77  1390.83  1476.93  1482.39
eigval :     1488.23  1507.32  1508.50  1556.47  1776.79  2504.29
eigval :     2932.02  2965.65  2998.41  3009.57  3012.55  3012.77
eigval :     3022.46  3023.40  3630.55

   temp. (K)  partition function   enthalpy   heat capacity  entropy
                                   cal/mol     cal/K/mol   cal/K/mol   J/K/mol
 298.15  VIB   326.                 3835.476     23.986     23.574
         ROT  0.239E+06              888.752      2.981     27.595
         INT  0.780E+08             4724.229     26.967     51.169
         TR   0.842E+27             1481.254      4.968     39.423
         TOT                        6205.4826    31.9348    90.5925   379.0389

       T/K    H(0)-H(T)+PV         H(T)/Eh          T*S/Eh         G(T)/Eh
   ------------------------------------------------------------------------
    298.15    0.988907E-02    0.152433E+00    0.430434E-01    0.109389E+00
   ------------------------------------------------------------------------

         :::::::::::::::::::::::::::::::::::::::::::::::::::::
         ::                  THERMODYNAMIC                  ::
         :::::::::::::::::::::::::::::::::::::::::::::::::::::
         :: total free energy         -22.476469019851 Eh   ::
         ::.................................................::
         :: total energy              -22.585858185997 Eh   ::
         :: zero point energy           0.142543510707 Eh   ::
         :: G(RRHO) w/o ZPVE           -0.033154344561 Eh   ::
         :: G(RRHO) contrib.            0.109389166146 Eh   ::
         :::::::::::::::::::::::::::::::::::::::::::::::::::::

           -------------------------------------------------
          | TOTAL ENERGY              -22.585858185997 Eh   |
          | TOTAL ENTHALPY            -22.433425609325 Eh   |
          | TOTAL FREE ENERGY         -22.476469019851 Eh   |
          | GRADIENT NORM               0.000659628945 Eh/α |
          | HOMO-LUMO GAP              11.227046185129 eV   |
           -------------------------------------------------

 * finished run on 2025/10/18 at 00:56:45.365
normal termination of xtb
