   * xtb version 6.7.1 (edcfbbe) compiled by 'albert@albert-system' on 2024-07-22

   ID    Z sym.   atoms
    1    6 C      1, 2, 5, 8
    2    8 O      3, 15
    3    1 H      4, 6, 7, 9-14, 16, 17

          program call               : xtb tb_lite_results_shiftn0p25_gp201_b0_rot90_complex.xyz --ohess --chrg -1 --alpb water
      * Solvation model:               ALPB
        Solvent                        water
        Solvent mass                       1.8000E+01 g/mol
          :  Hamiltonian                  GFN2-xTB          :
 * total energy  :   -22.5800621 Eh     change       -0.1983835E-10 Eh
 * total energy  :   -22.5839199 Eh     change       -0.3857753E-02 Eh
 * total energy  :   -22.5847151 Eh     change       -0.7952514E-03 Eh
 * total energy  :   -22.5851095 Eh     change       -0.3943964E-03 Eh
 * total energy  :   -22.5855077 Eh     change       -0.3981996E-03 Eh
 * total energy  :   -22.5856024 Eh     change       -0.9469502E-04 Eh
 * total energy  :   -22.5856875 Eh     change       -0.8511396E-04 Eh
 * total energy  :   -22.5857387 Eh     change       -0.5110651E-04 Eh
 * total energy  :   -22.5857523 Eh     change       -0.1363338E-04 Eh
 * total energy  :   -22.5857609 Eh     change       -0.8633944E-05 Eh
 * total energy  :   -22.5857816 Eh     change       -0.2064664E-04 Eh
 * total energy  :   -22.5857973 Eh     change       -0.1575585E-04 Eh
 * total energy  :   -22.5858088 Eh     change       -0.1147767E-04 Eh
 * total energy  :   -22.5858124 Eh     change       -0.3547057E-05 Eh
 * total energy  :   -22.5858185 Eh     change       -0.6113032E-05 Eh
 * total energy  :   -22.5858233 Eh     change       -0.4862766E-05 Eh
   *** GEOMETRY OPTIMIZATION CONVERGED AFTER 16 ITERATIONS ***

 final structure:
================
17
 xtb: 6.7.1 (edcfbbe)
C           -3.75714341013339       -3.89160052857478       -2.80986101896880
C           -4.25781727928751       -2.42919821175846       -2.88573816599545
O           -3.24048070752643       -1.52110092091163       -2.80466064106573
H           -4.58178946938247       -4.58833094341742       -2.94100523025713
C           -5.34461519245843       -2.22454106446496       -1.79668333111814
H           -4.76508066968481       -2.30885852228893       -3.88358013137902
H           -3.01158919131174       -4.05665139947504       -3.58467909674325
C           -6.03366033661549       -0.87585258590424       -1.93912736093864
H           -3.28935258616102       -4.04911701046658       -1.84033369874428
H           -6.07454769349126       -3.03528141378386       -1.86273855371387
H           -4.84037673868765       -2.28044729186635       -0.82878644652322
H           -6.61098443283861       -0.84331984055576       -2.86064678609980
H           -6.69123531818965       -0.68102919533369       -1.09539383513389
H           -5.27020398666460       -0.10210932958705       -1.98591403850513
O           -2.07320398420824       -1.81968994557017       -0.59254341281524
H           -2.58242681652273       -1.69265753956129       -1.51467441566089
H           -1.18587597347892       -1.50507128515979       -0.78645722733691

          :  Hamiltonian                  GFN2-xTB          :
         :: gradient norm              0.000956109873 Eh/a0 ::
         :: HOMO-LUMO gap             11.235786404343 eV    ::
         :: SCC energy               -22.806348961788 Eh    ::
         :: -> dispersion             -0.010096225140 Eh    ::
         :: -> Gsolv                  -0.114259001635 Eh    ::
         :: repulsion energy           0.220525635569 Eh    ::

    * Orbital Energies and Occupations

         #    Occupation            Energy/Eh            Energy/eV
      -------------------------------------------------------------
         1        2.0000           -0.6296846             -17.1346
       ...           ...                  ...                  ...
         8        2.0000           -0.4941291             -13.4459
         9        2.0000           -0.4824065             -13.1269
        10        2.0000           -0.4790466             -13.0355
        11        2.0000           -0.4686472             -12.7525
        12        2.0000           -0.4656437             -12.6708
        13        2.0000           -0.4451247             -12.1125
        14        2.0000           -0.4333428             -11.7919
        15        2.0000           -0.4275807             -11.6351
        16        2.0000           -0.4187561             -11.3949
        17        2.0000           -0.4128325             -11.2337
        18        2.0000           -0.3928115             -10.6889
        19        2.0000           -0.3194057              -8.6915
        20        2.0000           -0.3187974              -8.6749 (HOMO)
        21                          0.0941101               2.5609 (LUMO)
        22                          0.1190010               3.2382
        23                          0.1237750               3.3681
        24                          0.1359425               3.6992
        25                          0.1635693               4.4509
        26                          0.1758818               4.7860
        27                          0.1867643               5.0821
        28                          0.1940696               5.2809
        29                          0.2036325               5.5411
        30                          0.2294977               6.2450
        31                          0.2623280               7.1383
       ...                                ...                  ...
        35                          0.3481166               9.4727
      -------------------------------------------------------------
                  HL-Gap            0.4129076 Eh           11.2358 eV

     #   Z          covCN         q      C6AA      α(0)
     1   6 C        3.751    -0.108    22.625     6.784
     2   6 C        3.718     0.157    18.172     6.089
     3   8 O        0.897    -0.812    31.924     7.576
     4   1 H        0.925     0.014     2.822     2.627
     5   6 C        3.799    -0.067    21.794     6.647
     6   1 H        0.918    -0.086     5.109     3.535
     7   1 H        0.925     0.018     2.771     2.603
     8   6 C        3.752    -0.092    22.322     6.738
     9   1 H        0.925     0.023     2.687     2.563
    10   1 H        0.924     0.006     2.964     2.692
    11   1 H        0.924     0.017     2.784     2.609
    12   1 H        0.925     0.027     2.636     2.539
    13   1 H        0.925     0.036     2.506     2.476
    14   1 H        0.925     0.029     2.600     2.521
    15   8 O        1.580    -0.759    29.346     7.310
    16   1 H        0.819     0.290     0.749     1.358
    17   1 H        0.805     0.309     0.694     1.308

Wiberg/Mayer (AO) data.
largest (>0.10) Wiberg bond orders for each atom

     #   Z sym  total        # sym  WBO       # sym  WBO       # sym  WBO
 ---------------------------------------------------------------------------
     1   6 C    3.996 --     7 H    0.990     4 H    0.989     9 H    0.988
                             2 C    0.974
     2   6 C    3.981 --     3 O    1.086     1 C    0.974     5 C    0.963
                             6 H    0.943
     3   8 O    1.493 --     2 C    1.086    16 H    0.200
     4   1 H    1.000 --     1 C    0.989
     5   6 C    3.996 --     8 C    1.021    10 H    0.980    11 H    0.979
                             2 C    0.963
     6   1 H    0.993 --     2 C    0.943
     7   1 H    0.999 --     1 C    0.990
     8   6 C    3.999 --     5 C    1.021    12 H    0.989    14 H    0.987
                            13 H    0.987
     9   1 H    0.999 --     1 C    0.988
    10   1 H    1.000 --     5 C    0.980
    11   1 H    1.000 --     5 C    0.979
    12   1 H    0.999 --     8 C    0.989
    13   1 H    0.999 --     8 C    0.987
    14   1 H    0.999 --     8 C    0.987
    15   8 O    1.703 --    17 H    0.903    16 H    0.708
    16   1 H    0.916 --    15 O    0.708     3 O    0.200
    17   1 H    0.904 --    15 O    0.903
 ---------------------------------------------------------------------------

molecular dipole:
                 x           y           z       tot (Debye)
 q only:        6.194       3.389       4.131
   full:        6.149       3.279       3.957      20.371

 projected vibrational frequencies (cm⁻¹)
eigval :       -0.00    -0.00    -0.00     0.00     0.00     0.00
eigval :       43.86    97.69   104.67   187.04   213.70   228.18
eigval :      250.07   366.33   381.44   469.35   519.79   671.47
eigval :      805.28   842.38   936.84   980.67  1006.87  1047.88
eigval :     1079.44  1103.13  1138.62  1157.73  1259.13  1290.29
eigval :     1326.54  1346.14  1371.29  1390.73  1476.99  1482.53
eigval :     1488.31  1507.39  1508.08  1554.19  1779.98  2504.34
eigval :     2934.42  2967.23  2999.59  3013.34  3013.99  3016.46
eigval :     3024.24  3029.35  3634.51

   temp. (K)  partition function   enthalpy   heat capacity  entropy
                                   cal/mol     cal/K/mol   cal/K/mol   J/K/mol
 298.15  VIB   395.                 3873.441     23.956     23.927
         ROT  0.238E+06              888.752      2.981     27.587
         INT  0.943E+08             4762.194     26.937     51.514
         TR   0.842E+27             1481.254      4.968     39.423
         TOT                        6243.4476    31.9054    90.9368   380.4797

       T/K    H(0)-H(T)+PV         H(T)/Eh          T*S/Eh         G(T)/Eh
   ------------------------------------------------------------------------
    298.15    0.994957E-02    0.152452E+00    0.432070E-01    0.109245E+00
   ------------------------------------------------------------------------

         :::::::::::::::::::::::::::::::::::::::::::::::::::::
         ::                  THERMODYNAMIC                  ::
         :::::::::::::::::::::::::::::::::::::::::::::::::::::
         :: total free energy         -22.476577961488 Eh   ::
         ::.................................................::
         :: total energy              -22.585823325613 Eh   ::
         :: zero point energy           0.142502822186 Eh   ::
         :: G(RRHO) w/o ZPVE           -0.033257458061 Eh   ::
         :: G(RRHO) contrib.            0.109245364125 Eh   ::
         :::::::::::::::::::::::::::::::::::::::::::::::::::::

           -------------------------------------------------
          | TOTAL ENERGY              -22.585823325613 Eh   |
          | TOTAL ENTHALPY            -22.433370936326 Eh   |
          | TOTAL FREE ENERGY         -22.476577961488 Eh   |
          | GRADIENT NORM               0.000956116845 Eh/α |
          | HOMO-LUMO GAP              11.235786776078 eV   |
           -------------------------------------------------

 * finished run on 2025/10/18 at 00:56:31.337
normal termination of xtb
