                         Program Version 5.0.4 -  RELEASE  -
|  1> !OPT PBE D3BJ def2-TZVP CPCM(water)
|  2>
|  3> * xyz -1 1
|  4> O     -1.213355    4.368378   -1.357016
|  5> C     -1.478346    3.396874   -0.496545
|  6> H     -2.307236    2.712836   -0.745997
|  7> H     -0.672306    2.673214   -0.287238
|  8> H     -1.758880    3.692313    0.528740
|  9> *
| 10>
| 11>                          ****END OF INPUT****
 Total Charge           Charge          ....   -1
 Multiplicity           Mult            ....    1
 Number of Electrons    NEL             ....   18
Dispersion correction           -0.001467895
FINAL SINGLE POINT ENERGY      -115.122581517226
Dispersion correction            ... done
Dispersion correction           -0.001465069
FINAL SINGLE POINT ENERGY      -115.125574325710
Dispersion correction            ... done
Dispersion correction           -0.001464710
FINAL SINGLE POINT ENERGY      -115.125732386438
Dispersion correction            ... done
FINAL SINGLE POINT ENERGY      -115.125786169145
Dispersion correction            ... done
Dispersion correction           -0.001464673
FINAL SINGLE POINT ENERGY      -115.125801369551
Dispersion correction            ... done
Dispersion correction           -0.001464700
FINAL SINGLE POINT ENERGY      -115.125803259766
Dispersion correction            ... done
                    ***********************HURRAY********************

CARTESIAN COORDINATES (ANGSTROEM)
---------------------------------
  O     -1.209255    4.382362   -1.369034
  C     -1.481803    3.384652   -0.486082
  H     -2.340287    2.697943   -0.771087
  H     -0.631648    2.656980   -0.292176
  H     -1.767130    3.721678    0.560323

 Multiplicity           Mult            ....    1
 Number of Electrons    NEL             ....   18
 Basis Dimension        Dim             ....   80

ORBITAL ENERGIES
----------------

  NO   OCC          E(Eh)            E(eV)
   0   2.0000     -18.607729      -506.3420
   1   2.0000      -9.872859      -268.6542
   2   2.0000      -0.786254       -21.3951
   3   2.0000      -0.521940       -14.2027
   4   2.0000      -0.321876        -8.7587
   5   2.0000      -0.321817        -8.7571
   6   2.0000      -0.275650        -7.5008
   7   2.0000      -0.120899        -3.2898
   8   2.0000      -0.120849        -3.2885
   9   0.0000       0.049001         1.3334
  10   0.0000       0.102922         2.8006
  11   0.0000       0.121048         3.2939
  12   0.0000       0.121123         3.2959
  13   0.0000       0.218661         5.9501

MULLIKEN ATOMIC CHARGES
-----------------------
   0 O :   -0.871373
   1 C :   -0.172725
   2 H :    0.014923
   3 H :    0.014631
   4 H :    0.014543
Sum of atomic charges:   -1.0000000

LOEWDIN ATOMIC CHARGES
----------------------
   0 O :   -0.520481
   1 C :   -0.619151
   2 H :    0.046586
   3 H :    0.046538
   4 H :    0.046509

  Mayer bond orders larger than 0.100000
B(  0-O ,  1-C ) :   1.3926 B(  1-C ,  2-H ) :   0.9276 B(  1-C ,  3-H ) :   0.9280
B(  1-C ,  4-H ) :   0.9279

Dispersion correction           -0.001464699
FINAL SINGLE POINT ENERGY      -115.125803356234

DIPOLE MOMENT
-------------
                                X             Y             Z
Electronic contribution:      0.43485       1.59254      -1.41102
Nuclear contribution   :     -0.64202      -2.35225       2.08327
                        -----------------------------------------
Total Dipole Moment    :     -0.20718      -0.75971       0.67225
                        -----------------------------------------
Magnitude (a.u.)       :      1.03538
Magnitude (Debye)      :      2.63172

Rotational constants in cm-1:     5.309538     0.903748     0.903711
Rotational constants in MHz : 159175.943825 27093.684806 27092.582636

                             ****ORCA TERMINATED NORMALLY****
TOTAL RUN TIME: 0 days 0 hours 0 minutes 57 seconds 990 msec
