   * xtb version 6.7.1 (edcfbbe) compiled by 'albert@albert-system' on 2024-07-22

   ID    Z sym.   atoms
    1    6 C      1, 2, 4, 6, 8, 10, 12
    2    1 H      3, 5, 7, 9, 11
    3    8 O      13, 14

          program call               : xtb xyz.xyz --charge -1 --ohess
          :  Hamiltonian                  GFN2-xTB          :
 * total energy  :   -25.8815330 Eh     change       -0.7146816E-09 Eh
 * total energy  :   -25.8846273 Eh     change       -0.3094221E-02 Eh
 * total energy  :   -25.8852404 Eh     change       -0.6131748E-03 Eh
 * total energy  :   -25.8853856 Eh     change       -0.1451853E-03 Eh
 * total energy  :   -25.8854179 Eh     change       -0.3232554E-04 Eh
 * total energy  :   -25.8854188 Eh     change       -0.8508474E-06 Eh
   *** GEOMETRY OPTIMIZATION CONVERGED AFTER 6 ITERATIONS ***

 final structure:
================
14
 xtb: 6.7.1 (edcfbbe)
C           -4.17683875311447       -1.98854562447024        1.99267501820845
C           -3.84074727314820       -2.43811288265106        0.72841292939683
H           -6.97719707186064       -3.77349948822435        2.51075412815265
C           -5.30827624920652       -2.46891545562110        2.63818464653302
H           -3.57183958443098       -1.25579469175044        2.50939990797561
C           -4.63725597571731       -3.37788393003386        0.09332511214270
H           -2.95545793063086       -2.05912293384068        0.22908612260089
C           -5.76890453126208       -3.86367049576158        0.72918355506920
H           -4.37588662822185       -3.73193870996697       -0.89788278696751
C           -6.09954965407047       -3.41007646965946        1.99344120976799
H           -6.39101486196819       -4.59915932695665        0.23045239465449
C           -5.68502069795383       -1.95855080871035        4.06768417230520
O           -4.91217802420183       -1.11861416887735        4.55183717044939
O           -6.71436176421278       -2.45102001347591        4.55257441971107

          :  Hamiltonian                  GFN2-xTB          :
         :: gradient norm              0.000395899102 Eh/a0 ::
         :: HOMO-LUMO gap              2.316354678553 eV    ::
         :: SCC energy               -26.248828709845 Eh    ::
         :: -> dispersion             -0.012279752046 Eh    ::
         :: repulsion energy           0.363409918693 Eh    ::

    * Orbital Energies and Occupations

         #    Occupation            Energy/Eh            Energy/eV
      -------------------------------------------------------------
         1        2.0000           -0.5054513             -13.7540
       ...           ...                  ...                  ...
        11        2.0000           -0.3496307              -9.5139
        12        2.0000           -0.3421295              -9.3098
        13        2.0000           -0.3406690              -9.2701
        14        2.0000           -0.3360623              -9.1447
        15        2.0000           -0.3165768              -8.6145
        16        2.0000           -0.2962482              -8.0613
        17        2.0000           -0.2942026              -8.0057
        18        2.0000           -0.2762483              -7.5171
        19        2.0000           -0.2660007              -7.2382
        20        2.0000           -0.2551378              -6.9427
        21        2.0000           -0.2026139              -5.5134
        22        2.0000           -0.1879996              -5.1157
        23        2.0000           -0.1737180              -4.7271 (HOMO)
        24                         -0.0885935              -2.4108 (LUMO)
        25                         -0.0839533              -2.2845
        26                          0.0140823               0.3832
        27                          0.0802937               2.1849
        28                          0.2379674               6.4754
        29                          0.2547289               6.9315
        30                          0.2945836               8.0160
        31                          0.2965599               8.0698
        32                          0.3350728               9.1178
        33                          0.3355416               9.1306
        34                          0.5241336              14.2624
       ...                                ...                  ...
        41                          0.9069382              24.6790
      -------------------------------------------------------------
                  HL-Gap            0.0851245 Eh            2.3164 eV

     #   Z          covCN         q      C6AA      α(0)
     1   6 C        2.923    -0.029    28.726     8.789
     2   6 C        2.918    -0.042    29.051     8.839
     3   1 H        0.925     0.034     2.529     2.487
     4   6 C        2.963    -0.036    28.889     8.816
     5   1 H        0.925     0.034     2.529     2.487
     6   6 C        2.920    -0.045    29.112     8.848
     7   1 H        0.925    -0.008     3.204     2.799
     8   6 C        2.918    -0.042    29.051     8.839
     9   1 H        0.925    -0.012     3.271     2.828
    10   6 C        2.923    -0.029    28.726     8.789
    11   1 H        0.925    -0.008     3.204     2.799
    12   6 C        2.684     0.364    20.833     7.470
    13   8 O        0.856    -0.590    25.876     6.820
    14   8 O        0.856    -0.590    25.876     6.820

Wiberg/Mayer (AO) data.
largest (>0.10) Wiberg bond orders for each atom

     #   Z sym  total        # sym  WBO       # sym  WBO       # sym  WBO
 ---------------------------------------------------------------------------
     1   6 C    3.991 --     2 C    1.448     4 C    1.409     5 H    0.966
                             8 C    0.107
     2   6 C    3.991 --     1 C    1.448     6 C    1.433     7 H    0.971
                            10 C    0.107
     3   1 H    0.999 --    10 C    0.966
     4   6 C    3.945 --     1 C    1.409    10 C    1.409    12 C    0.878
                             6 C    0.112
     5   1 H    0.999 --     1 C    0.966
     6   6 C    3.990 --     2 C    1.433     8 C    1.433     9 H    0.972
                             4 C    0.112
     7   1 H    0.999 --     2 C    0.971
     8   6 C    3.991 --    10 C    1.448     6 C    1.433    11 H    0.971
                             1 C    0.107
     9   1 H    0.999 --     6 C    0.972
    10   6 C    3.991 --     8 C    1.448     4 C    1.409     3 H    0.966
                             2 C    0.107
    11   1 H    0.999 --     8 C    0.971
    12   6 C    3.947 --    13 O    1.520    14 O    1.520     4 C    0.878
    13   8 O    1.853 --    12 C    1.520    14 O    0.241
    14   8 O    1.853 --    12 C    1.520    13 O    0.241
 ---------------------------------------------------------------------------

molecular dipole:
                 x           y           z       tot (Debye)
 q only:       10.706       3.751      -7.543
   full:       10.798       3.626      -7.892      35.223

 projected vibrational frequencies (cm⁻¹)
eigval :       -0.00    -0.00    -0.00    -0.00     0.00     0.00
eigval :       30.45   133.65   174.50   344.01   353.09   393.99
eigval :      504.25   586.37   640.02   640.90   701.88   764.52
eigval :      782.38   878.00   894.47   926.41   931.82   976.97
eigval :     1072.25  1099.46  1129.82  1182.86  1187.01  1271.21
eigval :     1287.29  1325.89  1439.26  1459.21  1589.98  1590.09
eigval :     1758.46  3005.35  3012.13  3029.38  3067.90  3068.38

   temp. (K)  partition function   enthalpy   heat capacity  entropy
                                   cal/mol     cal/K/mol   cal/K/mol   J/K/mol
 298.15  VIB   72.9                 2861.137     20.342     16.564
         ROT  0.200E+06              888.752      2.981     27.234
         INT  0.146E+08             3749.889     23.323     43.797
         TR   0.129E+28             1481.254      4.968     40.271
         TOT                        5231.1433    28.2907    84.0681   351.7407

       T/K    H(0)-H(T)+PV         H(T)/Eh          T*S/Eh         G(T)/Eh
   ------------------------------------------------------------------------
    298.15    0.833636E-02    0.106830E+00    0.399434E-01    0.668863E-01
   ------------------------------------------------------------------------

         :::::::::::::::::::::::::::::::::::::::::::::::::::::
         ::                  THERMODYNAMIC                  ::
         :::::::::::::::::::::::::::::::::::::::::::::::::::::
         :: total free energy         -25.818532453795 Eh   ::
         ::.................................................::
         :: total energy              -25.885418791153 Eh   ::
         :: zero point energy           0.098493425113 Eh   ::
         :: G(RRHO) w/o ZPVE           -0.031607087754 Eh   ::
         :: G(RRHO) contrib.            0.066886337359 Eh   ::
         :::::::::::::::::::::::::::::::::::::::::::::::::::::

           -------------------------------------------------
          | TOTAL ENERGY              -25.885418791153 Eh   |
          | TOTAL ENTHALPY            -25.778589008616 Eh   |
          | TOTAL FREE ENERGY         -25.818532453795 Eh   |
          | GRADIENT NORM               0.000395927633 Eh/α |
          | HOMO-LUMO GAP               2.316355242224 eV   |
           -------------------------------------------------

 * finished run on 2025/10/18 at 03:34:22.212
