   * xtb version 6.7.1 (edcfbbe) compiled by 'albert@albert-system' on 2024-07-22

   ID    Z sym.   atoms
    1    6 C      1
    2   17 Cl     2-4

          program call               : xtb xyz.xyz --alpb water --charge -1 --ohess
      * Solvation model:               ALPB
        Solvent                        water
        Solvent mass                       1.8000E+01 g/mol
          :  Hamiltonian                  GFN2-xTB          :
 * total energy  :   -16.0151757 Eh     change       -0.2877698E-12 Eh
 * total energy  :   -16.0156481 Eh     change       -0.4724311E-03 Eh
 * total energy  :   -16.0157805 Eh     change       -0.1324207E-03 Eh
 * total energy  :   -16.0157808 Eh     change       -0.2740268E-06 Eh
   *** GEOMETRY OPTIMIZATION CONVERGED AFTER 4 ITERATIONS ***

 final structure:
================
4
 xtb: 6.7.1 (edcfbbe)
C           -5.77896648687417       -2.76540515271572        2.58304692542227
Cl          -4.34840121414247       -1.78433951072897        2.52058420772134
Cl          -6.20705862675725       -3.76294738296024        1.22859610824445
Cl          -6.78148467222611       -2.74889895359507        3.99994475861194

          :  Hamiltonian                  GFN2-xTB          :
         :: gradient norm              0.000201805284 Eh/a0 ::
         :: HOMO-LUMO gap              1.619984216032 eV    ::
         :: SCC energy               -16.031921677378 Eh    ::
         :: -> dispersion             -0.003846923583 Eh    ::
         :: -> Gsolv                  -0.082342261452 Eh    ::
         :: repulsion energy           0.016140900579 Eh    ::

    * Orbital Energies and Occupations

         #    Occupation            Energy/Eh            Energy/eV
      -------------------------------------------------------------
         1        2.0000           -1.0534915             -28.6670
         2        2.0000           -1.0519865             -28.6260
         3        2.0000           -1.0519863             -28.6260
         4        2.0000           -0.5426728             -14.7669
         5        2.0000           -0.4836619             -13.1611
         6        2.0000           -0.4836615             -13.1611
         7        2.0000           -0.4518766             -12.2962
         8        2.0000           -0.4189177             -11.3993
         9        2.0000           -0.4189174             -11.3993
        10        2.0000           -0.4164829             -11.3331
        11        2.0000           -0.4164825             -11.3331
        12        2.0000           -0.4103836             -11.1671
        13        2.0000           -0.2529222              -6.8824 (HOMO)
        14                         -0.1933888              -5.2624 (LUMO)
        15                         -0.0765185              -2.0822
        16                         -0.0765172              -2.0821
        17                          0.0352205               0.9584
        18                          0.0352363               0.9588
        19                          0.0352364               0.9588
        20                          0.0353098               0.9608
        21                          0.0353342               0.9615
        22                          0.0353344               0.9615
        23                          0.0363249               0.9885
        24                          0.0363251               0.9885
       ...                                ...                  ...
        31                          0.2591565               7.0520
      -------------------------------------------------------------
                  HL-Gap            0.0595333 Eh            1.6200 eV

     #   Z          covCN         q      C6AA      α(0)
     1   6 C        2.671    -0.015    28.356     8.713
     2  17 Cl       1.029    -0.328   109.738    16.027
     3  17 Cl       1.029    -0.328   109.738    16.027
     4  17 Cl       1.029    -0.328   109.738    16.027

Wiberg/Mayer (AO) data.
largest (>0.10) Wiberg bond orders for each atom

     #   Z sym  total        # sym  WBO       # sym  WBO       # sym  WBO
 ---------------------------------------------------------------------------
     1   6 C    2.794 --     3 Cl   0.931     2 Cl   0.931     4 Cl   0.931
     2  17 Cl   1.005 --     1 C    0.931
     3  17 Cl   1.005 --     1 C    0.931
     4  17 Cl   1.005 --     1 C    0.931
 ---------------------------------------------------------------------------

molecular dipole:
                 x           y           z       tot (Debye)
 q only:       10.921       5.226      -4.881
   full:       10.921       5.226      -4.881      33.179

 projected vibrational frequencies (cm⁻¹)
eigval :       -0.00    -0.00    -0.00    -0.00     0.00     0.00
eigval :     -913.11   211.07   211.13   448.68   809.98   810.16

   temp. (K)  partition function   enthalpy   heat capacity  entropy
                                   cal/mol     cal/K/mol   cal/K/mol   J/K/mol
 298.15  VIB   2.88                  943.240      6.275      5.267
         ROT  0.365E+05              888.752      2.981     23.858
         INT  0.105E+06             1831.992      9.256     29.125
         TR   0.125E+28             1481.254      4.968     40.202
         TOT                        3313.2461    14.2242    69.3279   290.0678

       T/K    H(0)-H(T)+PV         H(T)/Eh          T*S/Eh         G(T)/Eh
   ------------------------------------------------------------------------
    298.15    0.527999E-02    0.109550E-01    0.329399E-01   -0.219850E-01
   ------------------------------------------------------------------------

         :::::::::::::::::::::::::::::::::::::::::::::::::::::
         ::                  THERMODYNAMIC                  ::
         :::::::::::::::::::::::::::::::::::::::::::::::::::::
         :: total free energy         -16.037765731922 Eh   ::
         ::.................................................::
         :: total energy              -16.015780776801 Eh   ::
         :: zero point energy           0.005674961605 Eh   ::
         :: G(RRHO) w/o ZPVE           -0.027659916726 Eh   ::
         :: G(RRHO) contrib.           -0.021984955121 Eh   ::
         :::::::::::::::::::::::::::::::::::::::::::::::::::::

           -------------------------------------------------
          | TOTAL ENERGY              -16.015780776801 Eh   |
          | TOTAL ENTHALPY            -16.004825821426 Eh   |
          | TOTAL FREE ENERGY         -16.037765731922 Eh   |
          | GRADIENT NORM               0.000201804202 Eh/α |
          | HOMO-LUMO GAP               1.619984233240 eV   |
           -------------------------------------------------

 * finished run on 2025/10/18 at 05:41:40.551
