   * xtb version 6.7.1 (edcfbbe) compiled by 'albert@albert-system' on 2024-07-22

   ID    Z sym.   atoms
    1    6 C      1, 2, 5
    2    8 O      3
    3    1 H      4, 6-11

          program call               : xtb tb_lite_results_shiftn0p25_gp175_b0_rot0_solute.xyz --ohess --chrg -1
          :  Hamiltonian                  GFN2-xTB          :
 * total energy  :   -14.2048339 Eh     change       -0.1013484E-08 Eh
 * total energy  :   -14.2074925 Eh     change       -0.2658604E-02 Eh
 * total energy  :   -14.2079036 Eh     change       -0.4110590E-03 Eh
 * total energy  :   -14.2079866 Eh     change       -0.8305018E-04 Eh
 * total energy  :   -14.2080065 Eh     change       -0.1987909E-04 Eh
 * total energy  :   -14.2080082 Eh     change       -0.1673589E-05 Eh
   *** GEOMETRY OPTIMIZATION CONVERGED AFTER 6 ITERATIONS ***

 final structure:
================
11
 xtb: 6.7.1 (edcfbbe)
C           -3.70565143567007       -3.99813349081745       -2.65748154754586
C           -4.20869216985059       -2.58482687627644       -3.16026878494377
O           -3.28385637185998       -1.67605956282837       -3.24458293826467
H           -6.19653877088937       -2.98193982730094       -2.22596808915197
C           -5.42144322429598       -2.21103433298994       -2.21539926442705
H           -4.72225581809064       -2.82667855537978       -4.17606442575055
H           -5.85507137349627       -1.26853910458956       -2.54711045482758
H           -5.06007656805501       -2.08051822360983       -1.19550817423947
H           -3.31003357902617       -3.90390711118947       -1.64634389332436
H           -4.50905914507468       -4.73955092076072       -2.66122879120414
H           -2.90259278750082       -4.34311815578405       -3.30743778020980

          :  Hamiltonian                  GFN2-xTB          :
         :: gradient norm              0.000635470663 Eh/a0 ::
         :: HOMO-LUMO gap             10.169462106809 eV    ::
         :: SCC energy               -14.355147969165 Eh    ::
         :: -> dispersion             -0.005873396421 Eh    ::
         :: repulsion energy           0.147139776279 Eh    ::

    * Orbital Energies and Occupations

         #    Occupation            Energy/Eh            Energy/eV
      -------------------------------------------------------------
         1        2.0000           -0.4115212             -11.1981
         2        2.0000           -0.3974843             -10.8161
         3        2.0000           -0.3848160             -10.4714
         4        2.0000           -0.3363123              -9.1515
         5        2.0000           -0.3095425              -8.4231
         6        2.0000           -0.2988012              -8.1308
         7        2.0000           -0.2918608              -7.9419
         8        2.0000           -0.2820052              -7.6738
         9        2.0000           -0.2467416              -6.7142
        10        2.0000           -0.2435617              -6.6277
        11        2.0000           -0.2129683              -5.7952
        12        2.0000           -0.0936749              -2.5490
        13        2.0000           -0.0917060              -2.4954 (HOMO)
        14                          0.2820148               7.6740 (LUMO)
        15                          0.2955074               8.0412
        16                          0.2976194               8.0986
        17                          0.3314531               9.0193
        18                          0.3681256              10.0172
        19                          0.3691888              10.0461
        20                          0.4039852              10.9930
        21                          0.4196765              11.4200
        22                          0.4281349              11.6501
        23                          0.6309453              17.1689
      -------------------------------------------------------------
                  HL-Gap            0.3737208 Eh           10.1695 eV

     #   Z          covCN         q      C6AA      α(0)
     1   6 C        3.744    -0.097    22.434     6.757
     2   6 C        3.697     0.199    17.605     6.002
     3   8 O        0.855    -0.760    30.411     7.394
     4   1 H        0.924    -0.036     3.771     3.037
     5   6 C        3.744    -0.097    22.434     6.757
     6   1 H        0.907    -0.135     6.983     4.134
     7   1 H        0.925    -0.008     3.202     2.798
     8   1 H        0.925    -0.010     3.235     2.813
     9   1 H        0.925    -0.010     3.235     2.813
    10   1 H        0.924    -0.036     3.771     3.037
    11   1 H        0.925    -0.008     3.202     2.798

Wiberg/Mayer (AO) data.
largest (>0.10) Wiberg bond orders for each atom

     #   Z sym  total        # sym  WBO       # sym  WBO       # sym  WBO
 ---------------------------------------------------------------------------
     1   6 C    3.975 --    11 H    0.991     9 H    0.991    10 H    0.989
                             2 C    0.920
     2   6 C    3.974 --     3 O    1.236     5 C    0.920     1 C    0.920
                             6 H    0.900
     3   8 O    1.456 --     2 C    1.236
     4   1 H    0.999 --     5 C    0.989
     5   6 C    3.975 --     7 H    0.991     8 H    0.991     4 H    0.989
                             2 C    0.920
     6   1 H    0.982 --     2 C    0.900
     7   1 H    1.000 --     5 C    0.991
     8   1 H    1.000 --     5 C    0.991
     9   1 H    1.000 --     1 C    0.991
    10   1 H    0.999 --     1 C    0.989
    11   1 H    1.000 --     1 C    0.991
 ---------------------------------------------------------------------------

molecular dipole:
                 x           y           z       tot (Debye)
 q only:        7.048       4.029       5.916
   full:        6.721       3.687       6.031      24.792

 projected vibrational frequencies (cm⁻¹)
eigval :       -0.00    -0.00    -0.00    -0.00     0.00     0.00
eigval :      175.97   221.68   357.95   417.68   498.40   758.77
eigval :      804.71   872.57   987.21  1017.41  1085.52  1255.00
eigval :     1295.45  1335.15  1349.50  1376.64  1499.08  1506.27
eigval :     1514.72  1525.33  2085.46  2920.48  2934.38  2981.72
eigval :     2990.49  3000.11  3002.98

   temp. (K)  partition function   enthalpy   heat capacity  entropy
                                   cal/mol     cal/K/mol   cal/K/mol   J/K/mol
 298.15  VIB   4.51                 1503.564     11.854      8.036
         ROT  0.458E+05              888.752      2.981     24.308
         INT  0.206E+06             2392.317     14.835     32.344
         TR   0.439E+27             1481.254      4.968     38.132
         TOT                        3873.5705    19.8027    70.4762   294.8726

       T/K    H(0)-H(T)+PV         H(T)/Eh          T*S/Eh         G(T)/Eh
   ------------------------------------------------------------------------
    298.15    0.617293E-02    0.967771E-01    0.334855E-01    0.632915E-01
   ------------------------------------------------------------------------

         :::::::::::::::::::::::::::::::::::::::::::::::::::::
         ::                  THERMODYNAMIC                  ::
         :::::::::::::::::::::::::::::::::::::::::::::::::::::
         :: total free energy         -14.144716662320 Eh   ::
         ::.................................................::
         :: total energy              -14.208008192886 Eh   ::
         :: zero point energy           0.090604138251 Eh   ::
         :: G(RRHO) w/o ZPVE           -0.027312607685 Eh   ::
         :: G(RRHO) contrib.            0.063291530565 Eh   ::
         :::::::::::::::::::::::::::::::::::::::::::::::::::::

           -------------------------------------------------
          | TOTAL ENERGY              -14.208008192886 Eh   |
          | TOTAL ENTHALPY            -14.111231127113 Eh   |
          | TOTAL FREE ENERGY         -14.144716662320 Eh   |
          | GRADIENT NORM               0.000635458511 Eh/α |
          | HOMO-LUMO GAP              10.169461555449 eV   |
           -------------------------------------------------

 * finished run on 2025/10/18 at 00:51:01.230
normal termination of xtb
