   * xtb version 6.7.1 (edcfbbe) compiled by 'albert@albert-system' on 2024-07-22

   ID    Z sym.   atoms
    1    6 C      1, 2, 5
    2    8 O      3, 12
    3    1 H      4, 6-11, 13, 14

          program call               : xtb tb_lite_results_shiftn0p25_gp196_b0_rot0_complex.xyz --ohess --chrg -1 --alpb water
      * Solvation model:               ALPB
        Solvent                        water
        Solvent mass                       1.8000E+01 g/mol
          :  Hamiltonian                  GFN2-xTB          :
 * total energy  :   -19.4138375 Eh     change       -0.1997336E-10 Eh
 * total energy  :   -19.4203080 Eh     change       -0.6470428E-02 Eh
 * total energy  :   -19.4214741 Eh     change       -0.1166126E-02 Eh
 * total energy  :   -19.4219976 Eh     change       -0.5234863E-03 Eh
 * total energy  :   -19.4223688 Eh     change       -0.3712020E-03 Eh
 * total energy  :   -19.4224752 Eh     change       -0.1064076E-03 Eh
 * total energy  :   -19.4225139 Eh     change       -0.3867641E-04 Eh
 * total energy  :   -19.4225637 Eh     change       -0.4982898E-04 Eh
 * total energy  :   -19.4225866 Eh     change       -0.2288044E-04 Eh
 * total energy  :   -19.4225968 Eh     change       -0.1021266E-04 Eh
 * total energy  :   -19.4226171 Eh     change       -0.2029738E-04 Eh
 * total energy  :   -19.4226276 Eh     change       -0.1054381E-04 Eh
 * total energy  :   -19.4226395 Eh     change       -0.1190759E-04 Eh
 * total energy  :   -19.4226527 Eh     change       -0.1319775E-04 Eh
 * total energy  :   -19.4226581 Eh     change       -0.5358714E-05 Eh
 * total energy  :   -19.4226627 Eh     change       -0.4655100E-05 Eh
   *** GEOMETRY OPTIMIZATION CONVERGED AFTER 16 ITERATIONS ***

 final structure:
================
14
 xtb: 6.7.1 (edcfbbe)
C           -3.77191951356045       -4.07652272227930       -2.71168819015023
C           -4.22388345192273       -2.65721700156091       -3.12692068050924
O           -3.18800374505911       -1.76788761228378       -3.18660715629607
H           -6.17993395541723       -2.90443262551506       -2.19401480421078
C           -5.35158066560819       -2.20055166589097       -2.17212628226592
H           -4.67760601097314       -2.74423801104161       -4.15420684843538
H           -5.69985297913693       -1.21443898878146       -2.47113863094254
H           -4.94691011059063       -2.13432265208913       -1.16464348573789
H           -3.33338891101671       -4.02288277900578       -1.71764715705977
H           -4.61577201816432       -4.76266945526216       -2.70961892590068
H           -3.01222924375768       -4.43096176255772       -3.40476582973213
O           -2.21943629630308       -1.52297089638013       -0.86875063837814
H           -2.61717322546138       -1.64761378232200       -1.83946019980683
H           -1.86408457284276       -0.62950439909110       -0.88556539300475

          :  Hamiltonian                  GFN2-xTB          :
         :: gradient norm              0.000675937394 Eh/a0 ::
         :: HOMO-LUMO gap             11.759941673120 eV    ::
         :: SCC energy               -19.596770100024 Eh    ::
         :: -> dispersion             -0.007481935980 Eh    ::
         :: -> Gsolv                  -0.115189648516 Eh    ::
         :: repulsion energy           0.174107357844 Eh    ::

    * Orbital Energies and Occupations

         #    Occupation            Energy/Eh            Energy/eV
      -------------------------------------------------------------
         1        2.0000           -0.6304720             -17.1560
       ...           ...                  ...                  ...
         5        2.0000           -0.5370782             -14.6146
         6        2.0000           -0.5080323             -13.8243
         7        2.0000           -0.4899934             -13.3334
         8        2.0000           -0.4794870             -13.0475
         9        2.0000           -0.4694830             -12.7753
        10        2.0000           -0.4663636             -12.6904
        11        2.0000           -0.4502747             -12.2526
        12        2.0000           -0.4300988             -11.7036
        13        2.0000           -0.4278182             -11.6415
        14        2.0000           -0.4178874             -11.3713
        15        2.0000           -0.3937459             -10.7144
        16        2.0000           -0.3199782              -8.7070
        17        2.0000           -0.3197880              -8.7019 (HOMO)
        18                          0.1123821               3.0581 (LUMO)
        19                          0.1221751               3.3246
        20                          0.1314796               3.5777
        21                          0.1432953               3.8993
        22                          0.1798302               4.8934
        23                          0.1827740               4.9735
        24                          0.2021371               5.5004
        25                          0.2475723               6.7368
        26                          0.2667226               7.2579
        27                          0.2672965               7.2735
        28                          0.2833995               7.7117
        29                          0.3398450               9.2477
      -------------------------------------------------------------
                  HL-Gap            0.4321701 Eh           11.7599 eV

     #   Z          covCN         q      C6AA      α(0)
     1   6 C        3.751    -0.108    22.626     6.784
     2   6 C        3.717     0.160    18.129     6.082
     3   8 O        0.891    -0.821    32.190     7.608
     4   1 H        0.925     0.017     2.783     2.609
     5   6 C        3.751    -0.108    22.631     6.784
     6   1 H        0.918    -0.089     5.181     3.560
     7   1 H        0.925     0.017     2.779     2.607
     8   1 H        0.925     0.026     2.645     2.543
     9   1 H        0.925     0.025     2.662     2.552
    10   1 H        0.925     0.017     2.773     2.604
    11   1 H        0.925     0.016     2.793     2.614
    12   8 O        1.583    -0.756    29.259     7.299
    13   1 H        0.815     0.292     0.744     1.354
    14   1 H        0.805     0.311     0.688     1.303

Wiberg/Mayer (AO) data.
largest (>0.10) Wiberg bond orders for each atom

     #   Z sym  total        # sym  WBO       # sym  WBO       # sym  WBO
 ---------------------------------------------------------------------------
     1   6 C    3.997 --    11 H    0.990    10 H    0.989     9 H    0.988
                             2 C    0.976
     2   6 C    3.981 --     3 O    1.085     5 C    0.976     1 C    0.976
                             6 H    0.943
     3   8 O    1.478 --     2 C    1.085    13 H    0.192
     4   1 H    1.000 --     5 C    0.989
     5   6 C    3.997 --     7 H    0.990     4 H    0.989     8 H    0.988
                             2 C    0.976
     6   1 H    0.992 --     2 C    0.943
     7   1 H    1.000 --     5 C    0.990
     8   1 H    0.999 --     5 C    0.988
     9   1 H    0.999 --     1 C    0.988
    10   1 H    1.000 --     1 C    0.989
    11   1 H    1.000 --     1 C    0.990
    12   8 O    1.706 --    14 H    0.902    13 H    0.716
    13   1 H    0.915 --    12 O    0.716     3 O    0.192
    14   1 H    0.903 --    12 O    0.902
 ---------------------------------------------------------------------------

molecular dipole:
                 x           y           z       tot (Debye)
 q only:        5.922       3.859       4.915
   full:        5.758       3.843       4.791      21.398

 projected vibrational frequencies (cm⁻¹)
eigval :       -0.00    -0.00     0.00     0.00     0.00     0.00
eigval :       59.26    96.27   113.74   198.53   236.36   360.84
eigval :      370.49   419.04   519.48   667.44   846.22   905.94
eigval :      939.97   971.12  1057.25  1097.24  1137.88  1153.68
eigval :     1315.40  1333.46  1365.05  1379.03  1476.25  1484.46
eigval :     1501.61  1511.51  1556.20  1829.52  2492.13  2997.94
eigval :     3004.76  3014.35  3018.68  3026.15  3028.16  3625.61

   temp. (K)  partition function   enthalpy   heat capacity  entropy
                                   cal/mol     cal/K/mol   cal/K/mol   J/K/mol
 298.15  VIB   126.                 3148.068     19.586     19.733
         ROT  0.135E+06              888.752      2.981     26.453
         INT  0.169E+08             4036.821     22.567     46.186
         TR   0.655E+27             1481.254      4.968     38.925
         TOT                        5518.0747    27.5348    85.1114   356.1061

       T/K    H(0)-H(T)+PV         H(T)/Eh          T*S/Eh         G(T)/Eh
   ------------------------------------------------------------------------
    298.15    0.879361E-02    0.122955E+00    0.404392E-01    0.825157E-01
   ------------------------------------------------------------------------

         :::::::::::::::::::::::::::::::::::::::::::::::::::::
         ::                  THERMODYNAMIC                  ::
         :::::::::::::::::::::::::::::::::::::::::::::::::::::
         :: total free energy         -19.340147003516 Eh   ::
         ::.................................................::
         :: total energy              -19.422662742357 Eh   ::
         :: zero point energy           0.114161298696 Eh   ::
         :: G(RRHO) w/o ZPVE           -0.031645559855 Eh   ::
         :: G(RRHO) contrib.            0.082515738841 Eh   ::
         :::::::::::::::::::::::::::::::::::::::::::::::::::::

           -------------------------------------------------
          | TOTAL ENERGY              -19.422662742357 Eh   |
          | TOTAL ENTHALPY            -19.299707831847 Eh   |
          | TOTAL FREE ENERGY         -19.340147003516 Eh   |
          | GRADIENT NORM               0.000675713672 Eh/α |
          | HOMO-LUMO GAP              11.759946394403 eV   |
           -------------------------------------------------

 * finished run on 2025/10/18 at 00:50:54.754
normal termination of xtb
