   * xtb version 6.7.1 (edcfbbe) compiled by 'albert@albert-system' on 2024-07-22

   ID    Z sym.   atoms
    1    6 C      1, 2, 5
    2    8 O      3, 12
    3    1 H      4, 6-11, 13, 14

          program call               : xtb tb_lite_results_shiftn0p25_gp196_b0_rot90_complex.xyz --ohess --chrg -1 --alpb water
      * Solvation model:               ALPB
        Solvent                        water
        Solvent mass                       1.8000E+01 g/mol
          :  Hamiltonian                  GFN2-xTB          :
 * total energy  :   -19.4138719 Eh     change       -0.1486811E-10 Eh
 * total energy  :   -19.4203622 Eh     change       -0.6490351E-02 Eh
 * total energy  :   -19.4215007 Eh     change       -0.1138466E-02 Eh
 * total energy  :   -19.4219539 Eh     change       -0.4531498E-03 Eh
 * total energy  :   -19.4223658 Eh     change       -0.4119515E-03 Eh
 * total energy  :   -19.4224534 Eh     change       -0.8759622E-04 Eh
 * total energy  :   -19.4225308 Eh     change       -0.7740918E-04 Eh
 * total energy  :   -19.4225568 Eh     change       -0.2601632E-04 Eh
 * total energy  :   -19.4225700 Eh     change       -0.1320688E-04 Eh
 * total energy  :   -19.4225991 Eh     change       -0.2908275E-04 Eh
 * total energy  :   -19.4226150 Eh     change       -0.1583700E-04 Eh
 * total energy  :   -19.4226355 Eh     change       -0.2058117E-04 Eh
 * total energy  :   -19.4226500 Eh     change       -0.1445278E-04 Eh
 * total energy  :   -19.4226579 Eh     change       -0.7907922E-05 Eh
 * total energy  :   -19.4226626 Eh     change       -0.4669979E-05 Eh
 * total energy  :   -19.4226668 Eh     change       -0.4236076E-05 Eh
 * total energy  :   -19.4226708 Eh     change       -0.3973105E-05 Eh
 * total energy  :   -19.4226746 Eh     change       -0.3828326E-05 Eh
   *** GEOMETRY OPTIMIZATION CONVERGED AFTER 18 ITERATIONS ***

 final structure:
================
14
 xtb: 6.7.1 (edcfbbe)
C           -3.80254322607585       -4.10637050671730       -2.72926551435180
C           -4.22303979560180       -2.67471526442535       -3.13720845349039
O           -3.16508143319779       -1.81500006601995       -3.21909725394250
H           -6.15769424517285       -2.88091247469019       -2.15055816226796
C           -5.31969391596357       -2.18806001198805       -2.16164214612959
H           -4.69928713240656       -2.75050539647395       -4.15511054618772
H           -5.66271691091405       -1.20174202351427       -2.46619025893424
H           -4.88736588913204       -2.11043309783829       -1.16626817273069
H           -3.35386404771656       -4.06727814168980       -1.73921138796365
H           -4.66431257109184       -4.76938628538122       -2.72019021421677
H           -3.06041096112211       -4.47902218249781       -3.43165639563441
O           -2.10580686744557       -1.60529188192404       -0.93786497855965
H           -2.56792522549896       -1.68994432564703       -1.88344346203119
H           -1.21797916440944       -1.30455269976656       -1.15289536790739

          :  Hamiltonian                  GFN2-xTB          :
         :: gradient norm              0.000865490097 Eh/a0 ::
         :: HOMO-LUMO gap             11.761225048511 eV    ::
         :: SCC energy               -19.596867927869 Eh    ::
         :: -> dispersion             -0.007470097603 Eh    ::
         :: -> Gsolv                  -0.115144030530 Eh    ::
         :: repulsion energy           0.174193323474 Eh    ::

    * Orbital Energies and Occupations

         #    Occupation            Energy/Eh            Energy/eV
      -------------------------------------------------------------
         1        2.0000           -0.6305785             -17.1589
       ...           ...                  ...                  ...
         5        2.0000           -0.5371178             -14.6157
         6        2.0000           -0.5079359             -13.8216
         7        2.0000           -0.4900446             -13.3348
         8        2.0000           -0.4796802             -13.0528
         9        2.0000           -0.4694596             -12.7746
        10        2.0000           -0.4666550             -12.6983
        11        2.0000           -0.4502911             -12.2530
        12        2.0000           -0.4301441             -11.7048
        13        2.0000           -0.4278013             -11.6411
        14        2.0000           -0.4179584             -11.3732
        15        2.0000           -0.3939402             -10.7197
        16        2.0000           -0.3199494              -8.7063
        17        2.0000           -0.3197641              -8.7012 (HOMO)
        18                          0.1124532               3.0600 (LUMO)
        19                          0.1223275               3.3287
        20                          0.1315207               3.5789
        21                          0.1432085               3.8969
        22                          0.1802048               4.9036
        23                          0.1826741               4.9708
        24                          0.2022994               5.5048
        25                          0.2473939               6.7319
        26                          0.2666547               7.2560
        27                          0.2673084               7.2738
        28                          0.2830376               7.7018
        29                          0.3410804               9.2813
      -------------------------------------------------------------
                  HL-Gap            0.4322173 Eh           11.7612 eV

     #   Z          covCN         q      C6AA      α(0)
     1   6 C        3.751    -0.108    22.630     6.784
     2   6 C        3.717     0.160    18.125     6.082
     3   8 O        0.890    -0.820    32.185     7.607
     4   1 H        0.925     0.017     2.773     2.604
     5   6 C        3.751    -0.108    22.629     6.784
     6   1 H        0.918    -0.089     5.187     3.562
     7   1 H        0.925     0.016     2.793     2.614
     8   1 H        0.925     0.025     2.658     2.549
     9   1 H        0.925     0.025     2.658     2.549
    10   1 H        0.925     0.017     2.781     2.608
    11   1 H        0.925     0.017     2.780     2.607
    12   8 O        1.583    -0.755    29.248     7.298
    13   1 H        0.815     0.292     0.745     1.355
    14   1 H        0.805     0.311     0.688     1.302

Wiberg/Mayer (AO) data.
largest (>0.10) Wiberg bond orders for each atom

     #   Z sym  total        # sym  WBO       # sym  WBO       # sym  WBO
 ---------------------------------------------------------------------------
     1   6 C    3.997 --    11 H    0.990    10 H    0.989     9 H    0.988
                             2 C    0.975
     2   6 C    3.981 --     3 O    1.085     5 C    0.976     1 C    0.975
                             6 H    0.943
     3   8 O    1.478 --     2 C    1.085    13 H    0.192
     4   1 H    1.000 --     5 C    0.989
     5   6 C    3.997 --     7 H    0.990     4 H    0.989     8 H    0.988
                             2 C    0.976
     6   1 H    0.992 --     2 C    0.943
     7   1 H    1.000 --     5 C    0.990
     8   1 H    0.999 --     5 C    0.988
     9   1 H    0.999 --     1 C    0.988
    10   1 H    1.000 --     1 C    0.989
    11   1 H    1.000 --     1 C    0.990
    12   8 O    1.707 --    14 H    0.902    13 H    0.716
    13   1 H    0.915 --    12 O    0.716     3 O    0.192
    14   1 H    0.903 --    12 O    0.902
 ---------------------------------------------------------------------------

molecular dipole:
                 x           y           z       tot (Debye)
 q only:        6.142       3.624       4.879
   full:        6.052       3.522       4.730      21.478

 projected vibrational frequencies (cm⁻¹)
eigval :       -0.00    -0.00    -0.00    -0.00     0.00     0.00
eigval :       59.00   100.83   193.47   204.42   234.98   362.36
eigval :      370.82   418.48   518.92   672.46   846.08   905.73
eigval :      940.06   972.65  1055.45  1097.05  1137.89  1154.46
eigval :     1315.37  1334.13  1365.31  1379.17  1476.41  1484.66
eigval :     1501.47  1511.29  1560.31  1838.07  2491.93  2999.16
eigval :     3005.05  3014.03  3018.56  3025.40  3027.66  3627.98

   temp. (K)  partition function   enthalpy   heat capacity  entropy
                                   cal/mol     cal/K/mol   cal/K/mol   J/K/mol
 298.15  VIB   83.4                 3049.876     19.511     18.608
         ROT  0.135E+06              888.752      2.981     26.462
         INT  0.113E+08             3938.628     22.492     45.070
         TR   0.655E+27             1481.254      4.968     38.925
         TOT                        5419.8821    27.4599    83.9951   351.4354

       T/K    H(0)-H(T)+PV         H(T)/Eh          T*S/Eh         G(T)/Eh
   ------------------------------------------------------------------------
    298.15    0.863713E-02    0.123049E+00    0.399088E-01    0.831404E-01
   ------------------------------------------------------------------------

         :::::::::::::::::::::::::::::::::::::::::::::::::::::
         ::                  THERMODYNAMIC                  ::
         :::::::::::::::::::::::::::::::::::::::::::::::::::::
         :: total free energy         -19.339534169707 Eh   ::
         ::.................................................::
         :: total energy              -19.422674603602 Eh   ::
         :: zero point energy           0.114412077536 Eh   ::
         :: G(RRHO) w/o ZPVE           -0.031271643641 Eh   ::
         :: G(RRHO) contrib.            0.083140433894 Eh   ::
         :::::::::::::::::::::::::::::::::::::::::::::::::::::

           -------------------------------------------------
          | TOTAL ENERGY              -19.422674603602 Eh   |
          | TOTAL ENTHALPY            -19.299625394213 Eh   |
          | TOTAL FREE ENERGY         -19.339534169707 Eh   |
          | GRADIENT NORM               0.000865215823 Eh/α |
          | HOMO-LUMO GAP              11.761232504470 eV   |
           -------------------------------------------------

 * finished run on 2025/10/18 at 00:50:48.778
normal termination of xtb
