   * xtb version 6.7.1 (edcfbbe) compiled by 'albert@albert-system' on 2024-07-22

   ID    Z sym.   atoms
    1    6 C      1, 2, 5
    2    8 O      3, 12
    3    1 H      4, 6-11, 13, 14

          program call               : xtb tb_lite_results_shiftn0p2_gp196_b0_rot0_complex.xyz --ohess --chrg -1 --alpb water
      * Solvation model:               ALPB
        Solvent                        water
        Solvent mass                       1.8000E+01 g/mol
          :  Hamiltonian                  GFN2-xTB          :
 * total energy  :   -19.4141439 Eh     change       -0.2153655E-10 Eh
 * total energy  :   -19.4199996 Eh     change       -0.5855694E-02 Eh
 * total energy  :   -19.4212859 Eh     change       -0.1286301E-02 Eh
 * total energy  :   -19.4219888 Eh     change       -0.7028496E-03 Eh
 * total energy  :   -19.4223594 Eh     change       -0.3706407E-03 Eh
 * total energy  :   -19.4224769 Eh     change       -0.1175041E-03 Eh
 * total energy  :   -19.4225071 Eh     change       -0.3012182E-04 Eh
 * total energy  :   -19.4225610 Eh     change       -0.5391445E-04 Eh
 * total energy  :   -19.4225823 Eh     change       -0.2136788E-04 Eh
 * total energy  :   -19.4225925 Eh     change       -0.1013080E-04 Eh
 * total energy  :   -19.4226143 Eh     change       -0.2184528E-04 Eh
 * total energy  :   -19.4226263 Eh     change       -0.1194397E-04 Eh
 * total energy  :   -19.4226379 Eh     change       -0.1166259E-04 Eh
 * total energy  :   -19.4226510 Eh     change       -0.1309251E-04 Eh
 * total energy  :   -19.4226564 Eh     change       -0.5394640E-05 Eh
 * total energy  :   -19.4226603 Eh     change       -0.3914403E-05 Eh
   *** GEOMETRY OPTIMIZATION CONVERGED AFTER 16 ITERATIONS ***

 final structure:
================
14
 xtb: 6.7.1 (edcfbbe)
C           -3.77218647059475       -4.07528269713981       -2.70905134748511
C           -4.21802583604005       -2.65221236427019       -3.11800738521907
O           -3.17857245353473       -1.76683100546320       -3.17278821720193
H           -6.17620796731764       -2.89555492204378       -2.18826678516925
C           -5.34470992015398       -2.19548096665091       -2.16197538300992
H           -4.67146023792335       -2.73274029511620       -4.14606739282155
H           -5.68829649017148       -1.20633044285416       -2.45629897908872
H           -4.94081031489509       -2.13623269791591       -1.15375870595002
H           -3.33336418073113       -4.02792850519844       -1.71478323986189
H           -4.61906657504034       -4.75767430167464       -2.70993977564150
H           -3.01409898862831       -4.42989747281763       -3.40377158990482
O           -2.21031211485076       -1.53858156390466       -0.85275404242694
H           -2.60717734264134       -1.65664728146637       -1.82472028020704
H           -1.85573045296153       -0.64481983754490       -0.86324726185579

          :  Hamiltonian                  GFN2-xTB          :
         :: gradient norm              0.000547213423 Eh/a0 ::
         :: HOMO-LUMO gap             11.759174554389 eV    ::
         :: SCC energy               -19.596764615200 Eh    ::
         :: -> dispersion             -0.007482526975 Eh    ::
         :: -> Gsolv                  -0.115180160423 Eh    ::
         :: repulsion energy           0.174104296069 Eh    ::

    * Orbital Energies and Occupations

         #    Occupation            Energy/Eh            Energy/eV
      -------------------------------------------------------------
         1        2.0000           -0.6304957             -17.1567
       ...           ...                  ...                  ...
         5        2.0000           -0.5370682             -14.6144
         6        2.0000           -0.5080301             -13.8242
         7        2.0000           -0.4899932             -13.3334
         8        2.0000           -0.4794889             -13.0476
         9        2.0000           -0.4694820             -12.7753
        10        2.0000           -0.4663953             -12.6913
        11        2.0000           -0.4502704             -12.2525
        12        2.0000           -0.4300961             -11.7035
        13        2.0000           -0.4278181             -11.6415
        14        2.0000           -0.4178999             -11.3716
        15        2.0000           -0.3937695             -10.7150
        16        2.0000           -0.3199893              -8.7074
        17        2.0000           -0.3197874              -8.7019 (HOMO)
        18                          0.1123543               3.0573 (LUMO)
        19                          0.1221668               3.3243
        20                          0.1314148               3.5760
        21                          0.1432660               3.8985
        22                          0.1798471               4.8939
        23                          0.1827882               4.9739
        24                          0.2021260               5.5001
        25                          0.2475429               6.7360
        26                          0.2666721               7.2565
        27                          0.2673200               7.2741
        28                          0.2833514               7.7104
        29                          0.3398365               9.2474
      -------------------------------------------------------------
                  HL-Gap            0.4321417 Eh           11.7592 eV

     #   Z          covCN         q      C6AA      α(0)
     1   6 C        3.751    -0.108    22.627     6.784
     2   6 C        3.717     0.160    18.128     6.082
     3   8 O        0.890    -0.821    32.190     7.608
     4   1 H        0.925     0.017     2.783     2.609
     5   6 C        3.751    -0.108    22.631     6.784
     6   1 H        0.918    -0.089     5.183     3.561
     7   1 H        0.925     0.017     2.779     2.607
     8   1 H        0.925     0.026     2.645     2.543
     9   1 H        0.925     0.025     2.662     2.551
    10   1 H        0.925     0.017     2.773     2.604
    11   1 H        0.925     0.016     2.793     2.614
    12   8 O        1.583    -0.756    29.257     7.299
    13   1 H        0.815     0.292     0.744     1.354
    14   1 H        0.805     0.311     0.688     1.303

Wiberg/Mayer (AO) data.
largest (>0.10) Wiberg bond orders for each atom

     #   Z sym  total        # sym  WBO       # sym  WBO       # sym  WBO
 ---------------------------------------------------------------------------
     1   6 C    3.997 --    11 H    0.990    10 H    0.989     9 H    0.988
                             2 C    0.976
     2   6 C    3.981 --     3 O    1.085     5 C    0.976     1 C    0.976
                             6 H    0.943
     3   8 O    1.478 --     2 C    1.085    13 H    0.192
     4   1 H    1.000 --     5 C    0.989
     5   6 C    3.997 --     7 H    0.990     4 H    0.989     8 H    0.988
                             2 C    0.976
     6   1 H    0.992 --     2 C    0.943
     7   1 H    1.000 --     5 C    0.990
     8   1 H    0.999 --     5 C    0.988
     9   1 H    0.999 --     1 C    0.988
    10   1 H    1.000 --     1 C    0.989
    11   1 H    1.000 --     1 C    0.990
    12   8 O    1.706 --    14 H    0.902    13 H    0.716
    13   1 H    0.915 --    12 O    0.716     3 O    0.192
    14   1 H    0.903 --    12 O    0.902
 ---------------------------------------------------------------------------

molecular dipole:
                 x           y           z       tot (Debye)
 q only:        5.905       3.865       4.892
   full:        5.740       3.850       4.768      21.343

 projected vibrational frequencies (cm⁻¹)
eigval :       -0.00    -0.00    -0.00     0.00     0.00     0.00
eigval :       59.39    93.93   111.60   198.36   236.15   360.74
eigval :      370.15   419.04   519.46   666.91   846.17   905.92
eigval :      940.00   971.17  1057.90  1097.24  1137.84  1153.70
eigval :     1315.51  1333.59  1365.02  1379.04  1476.26  1484.46
eigval :     1501.58  1511.48  1555.85  1829.00  2491.23  2997.91
eigval :     3004.49  3014.39  3018.74  3026.08  3028.06  3626.85

   temp. (K)  partition function   enthalpy   heat capacity  entropy
                                   cal/mol     cal/K/mol   cal/K/mol   J/K/mol
 298.15  VIB   130.                 3154.027     19.584     19.815
         ROT  0.135E+06              888.752      2.981     26.453
         INT  0.175E+08             4042.780     22.565     46.267
         TR   0.655E+27             1481.254      4.968     38.925
         TOT                        5524.0337    27.5331    85.1926   356.4456

       T/K    H(0)-H(T)+PV         H(T)/Eh          T*S/Eh         G(T)/Eh
   ------------------------------------------------------------------------
    298.15    0.880311E-02    0.122951E+00    0.404777E-01    0.824734E-01
   ------------------------------------------------------------------------

         :::::::::::::::::::::::::::::::::::::::::::::::::::::
         ::                  THERMODYNAMIC                  ::
         :::::::::::::::::::::::::::::::::::::::::::::::::::::
         :: total free energy         -19.340186899266 Eh   ::
         ::.................................................::
         :: total energy              -19.422660319158 Eh   ::
         :: zero point energy           0.114148041995 Eh   ::
         :: G(RRHO) w/o ZPVE           -0.031674622104 Eh   ::
         :: G(RRHO) contrib.            0.082473419891 Eh   ::
         :::::::::::::::::::::::::::::::::::::::::::::::::::::

           -------------------------------------------------
          | TOTAL ENERGY              -19.422660319158 Eh   |
          | TOTAL ENTHALPY            -19.299709169079 Eh   |
          | TOTAL FREE ENERGY         -19.340186899266 Eh   |
          | GRADIENT NORM               0.000547153229 Eh/α |
          | HOMO-LUMO GAP              11.759174934885 eV   |
           -------------------------------------------------

 * finished run on 2025/10/18 at 00:50:57.770
normal termination of xtb
