   * xtb version 6.7.1 (edcfbbe) compiled by 'albert@albert-system' on 2024-07-22

   ID    Z sym.   atoms
    1    6 C      1, 2, 5
    2    8 O      3, 12
    3    1 H      4, 6-11, 13, 14

          program call               : xtb tb_lite_results_shiftn0p25_gp175_b0_rot0_complex.xyz --ohess --chrg -1 --alpb water
      * Solvation model:               ALPB
        Solvent                        water
        Solvent mass                       1.8000E+01 g/mol
          :  Hamiltonian                  GFN2-xTB          :
 * total energy  :   -19.4137077 Eh     change       -0.1302780E-10 Eh
 * total energy  :   -19.4200968 Eh     change       -0.6389085E-02 Eh
 * total energy  :   -19.4212093 Eh     change       -0.1112572E-02 Eh
 * total energy  :   -19.4216387 Eh     change       -0.4293931E-03 Eh
 * total energy  :   -19.4221905 Eh     change       -0.5517608E-03 Eh
 * total energy  :   -19.4223923 Eh     change       -0.2017899E-03 Eh
 * total energy  :   -19.4225294 Eh     change       -0.1371554E-03 Eh
 * total energy  :   -19.4225927 Eh     change       -0.6327153E-04 Eh
 * total energy  :   -19.4226162 Eh     change       -0.2354877E-04 Eh
 * total energy  :   -19.4226362 Eh     change       -0.1997052E-04 Eh
 * total energy  :   -19.4226590 Eh     change       -0.2275887E-04 Eh
 * total energy  :   -19.4226777 Eh     change       -0.1869026E-04 Eh
 * total energy  :   -19.4226904 Eh     change       -0.1276348E-04 Eh
 * total energy  :   -19.4226948 Eh     change       -0.4332597E-05 Eh
   *** GEOMETRY OPTIMIZATION CONVERGED AFTER 14 ITERATIONS ***

 final structure:
================
14
 xtb: 6.7.1 (edcfbbe)
C           -3.62666050708870       -3.88941972705230       -2.61782295519327
C           -4.26741652559526       -2.59185535249517       -3.16433973524324
O           -3.35687261808607       -1.59269930211239       -3.36056663907447
H           -6.14397407608556       -2.98113385296991       -2.12214460037707
C           -5.41835742622357       -2.17711977259837       -2.21811689537295
H           -4.73380028315099       -2.84884668873220       -4.15694000225262
H           -5.90610418457518       -1.28732331097504       -2.61012549989287
H           -4.99638352223989       -1.93903010309506       -1.24409753846681
H           -3.17445969049675       -3.67197637954281       -1.65257387238893
H           -4.37595660624715       -4.66993571915874       -2.50986104596823
H           -2.84559540455183       -4.22202951443046       -3.29784678460502
O           -2.37400930659613       -0.96637892926438       -1.12193770633570
H           -2.78558832806514       -1.24221897822188       -2.05356580760351
H           -1.89844506588587       -0.15495129272856       -1.31994848910257

          :  Hamiltonian                  GFN2-xTB          :
         :: gradient norm              0.000613245133 Eh/a0 ::
         :: HOMO-LUMO gap             11.762448399331 eV    ::
         :: SCC energy               -19.596960593853 Eh    ::
         :: -> dispersion             -0.007478862236 Eh    ::
         :: -> Gsolv                  -0.115200970438 Eh    ::
         :: repulsion energy           0.174265831206 Eh    ::

    * Orbital Energies and Occupations

         #    Occupation            Energy/Eh            Energy/eV
      -------------------------------------------------------------
         1        2.0000           -0.6306575             -17.1611
       ...           ...                  ...                  ...
         5        2.0000           -0.5370625             -14.6142
         6        2.0000           -0.5082469             -13.8301
         7        2.0000           -0.4896677             -13.3245
         8        2.0000           -0.4795781             -13.0500
         9        2.0000           -0.4693149             -12.7707
        10        2.0000           -0.4665328             -12.6950
        11        2.0000           -0.4501192             -12.2484
        12        2.0000           -0.4300112             -11.7012
        13        2.0000           -0.4276331             -11.6365
        14        2.0000           -0.4179700             -11.3735
        15        2.0000           -0.3939743             -10.7206
        16        2.0000           -0.3199146              -8.7053
        17        2.0000           -0.3196750              -8.6988 (HOMO)
        18                          0.1125869               3.0636 (LUMO)
        19                          0.1225630               3.3351
        20                          0.1315334               3.5792
        21                          0.1431212               3.8945
        22                          0.1801866               4.9031
        23                          0.1833690               4.9897
        24                          0.2024644               5.5093
        25                          0.2476746               6.7396
        26                          0.2669000               7.2627
        27                          0.2672651               7.2727
        28                          0.2843097               7.7365
        29                          0.3405955               9.2681
      -------------------------------------------------------------
                  HL-Gap            0.4322619 Eh           11.7624 eV

     #   Z          covCN         q      C6AA      α(0)
     1   6 C        3.751    -0.108    22.629     6.784
     2   6 C        3.717     0.160    18.126     6.082
     3   8 O        0.890    -0.821    32.189     7.608
     4   1 H        0.925     0.017     2.782     2.608
     5   6 C        3.751    -0.108    22.630     6.784
     6   1 H        0.918    -0.089     5.193     3.564
     7   1 H        0.925     0.017     2.785     2.610
     8   1 H        0.925     0.026     2.647     2.544
     9   1 H        0.925     0.025     2.663     2.552
    10   1 H        0.925     0.017     2.775     2.605
    11   1 H        0.925     0.016     2.790     2.612
    12   8 O        1.584    -0.755    29.245     7.298
    13   1 H        0.815     0.292     0.745     1.355
    14   1 H        0.805     0.312     0.687     1.302

Wiberg/Mayer (AO) data.
largest (>0.10) Wiberg bond orders for each atom

     #   Z sym  total        # sym  WBO       # sym  WBO       # sym  WBO
 ---------------------------------------------------------------------------
     1   6 C    3.997 --    11 H    0.990    10 H    0.989     9 H    0.988
                             2 C    0.975
     2   6 C    3.981 --     3 O    1.085     5 C    0.976     1 C    0.975
                             6 H    0.943
     3   8 O    1.478 --     2 C    1.085    13 H    0.191
     4   1 H    1.000 --     5 C    0.989
     5   6 C    3.997 --     7 H    0.990     4 H    0.989     8 H    0.988
                             2 C    0.976
     6   1 H    0.992 --     2 C    0.943
     7   1 H    1.000 --     5 C    0.990
     8   1 H    0.999 --     5 C    0.988
     9   1 H    0.999 --     1 C    0.988
    10   1 H    1.000 --     1 C    0.989
    11   1 H    1.000 --     1 C    0.990
    12   8 O    1.707 --    14 H    0.902    13 H    0.717
    13   1 H    0.915 --    12 O    0.717     3 O    0.191
    14   1 H    0.903 --    12 O    0.902
 ---------------------------------------------------------------------------

molecular dipole:
                 x           y           z       tot (Debye)
 q only:        6.289       3.323       5.161
   full:        6.163       3.255       5.035      21.854

 projected vibrational frequencies (cm⁻¹)
eigval :       -0.00    -0.00    -0.00    -0.00     0.00     0.00
eigval :      -59.36    58.42   102.56   197.81   236.67   361.78
eigval :      370.57   419.15   518.58   671.63   846.06   905.65
eigval :      940.04   973.28  1045.21  1096.65  1137.94  1153.76
eigval :     1315.08  1334.35  1365.55  1379.36  1476.53  1484.84
eigval :     1501.87  1511.56  1563.91  1842.47  2492.23  2999.56
eigval :     3005.54  3013.56  3017.96  3025.34  3027.24  3635.34

   temp. (K)  partition function   enthalpy   heat capacity  entropy
                                   cal/mol     cal/K/mol   cal/K/mol   J/K/mol
 298.15  VIB   51.2                 2696.432     17.677     16.443
         ROT  0.135E+06              888.752      2.981     26.454
         INT  0.690E+07             3585.184     20.658     42.897
         TR   0.655E+27             1481.254      4.968     38.925
         TOT                        5066.4381    25.6259    81.8224   342.3448

       T/K    H(0)-H(T)+PV         H(T)/Eh          T*S/Eh         G(T)/Eh
   ------------------------------------------------------------------------
    298.15    0.807388E-02    0.122046E+00    0.388765E-01    0.831697E-01
   ------------------------------------------------------------------------

         :::::::::::::::::::::::::::::::::::::::::::::::::::::
         ::                  THERMODYNAMIC                  ::
         :::::::::::::::::::::::::::::::::::::::::::::::::::::
         :: total free energy         -19.339525062994 Eh   ::
         ::.................................................::
         :: total energy              -19.422694762158 Eh   ::
         :: zero point energy           0.113972268111 Eh   ::
         :: G(RRHO) w/o ZPVE           -0.030802568947 Eh   ::
         :: G(RRHO) contrib.            0.083169699164 Eh   ::
         :::::::::::::::::::::::::::::::::::::::::::::::::::::

           -------------------------------------------------
          | TOTAL ENERGY              -19.422694762158 Eh   |
          | TOTAL ENTHALPY            -19.300648611029 Eh   |
          | TOTAL FREE ENERGY         -19.339525062994 Eh   |
          | GRADIENT NORM               0.000613530028 Eh/α |
          | HOMO-LUMO GAP              11.762445285377 eV   |
           -------------------------------------------------

 * finished run on 2025/10/18 at 00:51:00.839
normal termination of xtb
