   * xtb version 6.7.1 (edcfbbe) compiled by 'albert@albert-system' on 2024-07-22

   ID    Z sym.   atoms
    1    6 C      1, 2, 5
    2    8 O      3, 12
    3    1 H      4, 6-11, 13, 14

          program call               : xtb tb_lite_results_shiftn0p2_gp196_b0_rot90_complex.xyz --ohess --chrg -1 --alpb water
      * Solvation model:               ALPB
        Solvent                        water
        Solvent mass                       1.8000E+01 g/mol
          :  Hamiltonian                  GFN2-xTB          :
 * total energy  :   -19.4141838 Eh     change       -0.1831424E-10 Eh
 * total energy  :   -19.4200974 Eh     change       -0.5913554E-02 Eh
 * total energy  :   -19.4213431 Eh     change       -0.1245666E-02 Eh
 * total energy  :   -19.4219478 Eh     change       -0.6047417E-03 Eh
 * total energy  :   -19.4223557 Eh     change       -0.4078865E-03 Eh
 * total energy  :   -19.4224486 Eh     change       -0.9296885E-04 Eh
 * total energy  :   -19.4225240 Eh     change       -0.7536024E-04 Eh
 * total energy  :   -19.4225478 Eh     change       -0.2379763E-04 Eh
 * total energy  :   -19.4225689 Eh     change       -0.2108696E-04 Eh
 * total energy  :   -19.4225961 Eh     change       -0.2719298E-04 Eh
 * total energy  :   -19.4226134 Eh     change       -0.1732112E-04 Eh
 * total energy  :   -19.4226361 Eh     change       -0.2269517E-04 Eh
 * total energy  :   -19.4226526 Eh     change       -0.1645951E-04 Eh
 * total energy  :   -19.4226609 Eh     change       -0.8293802E-05 Eh
 * total energy  :   -19.4226623 Eh     change       -0.1453469E-05 Eh
 * total energy  :   -19.4226690 Eh     change       -0.6671325E-05 Eh
 * total energy  :   -19.4226721 Eh     change       -0.3167455E-05 Eh
   *** GEOMETRY OPTIMIZATION CONVERGED AFTER 17 ITERATIONS ***

 final structure:
================
14
 xtb: 6.7.1 (edcfbbe)
C           -3.79438037051562       -4.10009131065954       -2.72144590724027
C           -4.21808034602718       -2.66971920722653       -3.12964820065050
O           -3.16100280943655       -1.80759917967280       -3.21087217400779
H           -6.15412676964458       -2.87465687338227       -2.14519041694042
C           -5.31429960125145       -2.18397460758079       -2.15359333241345
H           -4.69290734415576       -2.74658508240189       -4.14787507961798
H           -5.65449644190455       -1.19584629394029       -2.45536927564767
H           -4.88294367862449       -2.11006371263604       -1.15760075421298
H           -3.35310882906900       -4.06047532682792       -1.72801423842884
H           -4.65259581164091       -4.76793019258671       -2.71981731914127
H           -3.04486403756419       -4.46783952822139       -3.41890229037670
O           -2.11019281295139       -1.62268121212262       -0.92476096652021
H           -2.56879801269235       -1.69417011494779       -1.87483045369716
H           -1.21416916594137       -1.34158171636680       -1.13095806886670

          :  Hamiltonian                  GFN2-xTB          :
         :: gradient norm              0.000453981098 Eh/a0 ::
         :: HOMO-LUMO gap             11.764154833221 eV    ::
         :: SCC energy               -19.596764939718 Eh    ::
         :: -> dispersion             -0.007478975004 Eh    ::
         :: -> Gsolv                  -0.115144469795 Eh    ::
         :: repulsion energy           0.174092790605 Eh    ::

    * Orbital Energies and Occupations

         #    Occupation            Energy/Eh            Energy/eV
      -------------------------------------------------------------
         1        2.0000           -0.6303039             -17.1514
       ...           ...                  ...                  ...
         5        2.0000           -0.5371597             -14.6169
         6        2.0000           -0.5079388             -13.8217
         7        2.0000           -0.4898790             -13.3303
         8        2.0000           -0.4795614             -13.0495
         9        2.0000           -0.4694856             -12.7754
        10        2.0000           -0.4663458             -12.6899
        11        2.0000           -0.4502135             -12.2509
        12        2.0000           -0.4301014             -11.7037
        13        2.0000           -0.4277738             -11.6403
        14        2.0000           -0.4179750             -11.3737
        15        2.0000           -0.3935951             -10.7103
        16        2.0000           -0.3201264              -8.7111
        17        2.0000           -0.3199550              -8.7064 (HOMO)
        18                          0.1123699               3.0577 (LUMO)
        19                          0.1221939               3.3251
        20                          0.1316451               3.5822
        21                          0.1433038               3.8995
        22                          0.1798145               4.8930
        23                          0.1830843               4.9820
        24                          0.2022396               5.5032
        25                          0.2475364               6.7358
        26                          0.2665965               7.2545
        27                          0.2672573               7.2724
        28                          0.2834968               7.7143
        29                          0.3397177               9.2442
      -------------------------------------------------------------
                  HL-Gap            0.4323249 Eh           11.7642 eV

     #   Z          covCN         q      C6AA      α(0)
     1   6 C        3.751    -0.108    22.629     6.784
     2   6 C        3.717     0.160    18.129     6.082
     3   8 O        0.892    -0.820    32.165     7.605
     4   1 H        0.925     0.017     2.772     2.604
     5   6 C        3.751    -0.108    22.628     6.784
     6   1 H        0.918    -0.088     5.169     3.556
     7   1 H        0.925     0.016     2.792     2.613
     8   1 H        0.925     0.025     2.654     2.548
     9   1 H        0.925     0.025     2.653     2.547
    10   1 H        0.925     0.017     2.781     2.608
    11   1 H        0.925     0.017     2.779     2.607
    12   8 O        1.582    -0.756    29.280     7.302
    13   1 H        0.816     0.292     0.745     1.354
    14   1 H        0.805     0.311     0.689     1.304

Wiberg/Mayer (AO) data.
largest (>0.10) Wiberg bond orders for each atom

     #   Z sym  total        # sym  WBO       # sym  WBO       # sym  WBO
 ---------------------------------------------------------------------------
     1   6 C    3.997 --    11 H    0.990    10 H    0.989     9 H    0.988
                             2 C    0.976
     2   6 C    3.981 --     3 O    1.085     5 C    0.976     1 C    0.976
                             6 H    0.943
     3   8 O    1.480 --     2 C    1.085    13 H    0.194
     4   1 H    1.000 --     5 C    0.989
     5   6 C    3.997 --     7 H    0.990     4 H    0.989     8 H    0.988
                             2 C    0.976
     6   1 H    0.992 --     2 C    0.943
     7   1 H    1.000 --     5 C    0.990
     8   1 H    0.999 --     5 C    0.988
     9   1 H    0.999 --     1 C    0.988
    10   1 H    1.000 --     1 C    0.989
    11   1 H    1.000 --     1 C    0.990
    12   8 O    1.705 --    14 H    0.902    13 H    0.714
    13   1 H    0.915 --    12 O    0.714     3 O    0.194
    14   1 H    0.903 --    12 O    0.902
 ---------------------------------------------------------------------------

molecular dipole:
                 x           y           z       tot (Debye)
 q only:        6.135       3.610       4.859
   full:        6.049       3.506       4.712      21.430

 projected vibrational frequencies (cm⁻¹)
eigval :       -0.00    -0.00     0.00     0.00     0.00     0.00
eigval :     -130.06    61.16   102.88   197.15   235.98   361.60
eigval :      372.36   418.89   519.66   670.19   846.46   906.18
eigval :      940.31   971.85  1059.81  1097.52  1137.90  1153.74
eigval :     1315.13  1332.92  1365.71  1379.58  1476.46  1484.65
eigval :     1501.69  1511.52  1557.88  1819.45  2494.87  2998.67
eigval :     3004.47  3013.41  3017.81  3025.60  3027.58  3627.40

   temp. (K)  partition function   enthalpy   heat capacity  entropy
                                   cal/mol     cal/K/mol   cal/K/mol   J/K/mol
 298.15  VIB   49.2                 2691.827     17.705     16.408
         ROT  0.135E+06              888.752      2.981     26.453
         INT  0.663E+07             3580.580     20.686     42.860
         TR   0.655E+27             1481.254      4.968     38.925
         TOT                        5061.8337    25.6537    81.7856   342.1911

       T/K    H(0)-H(T)+PV         H(T)/Eh          T*S/Eh         G(T)/Eh
   ------------------------------------------------------------------------
    298.15    0.806655E-02    0.121994E+00    0.388590E-01    0.831351E-01
   ------------------------------------------------------------------------

         :::::::::::::::::::::::::::::::::::::::::::::::::::::
         ::                  THERMODYNAMIC                  ::
         :::::::::::::::::::::::::::::::::::::::::::::::::::::
         :: total free energy         -19.339537009982 Eh   ::
         ::.................................................::
         :: total energy              -19.422672148190 Eh   ::
         :: zero point energy           0.113927584613 Eh   ::
         :: G(RRHO) w/o ZPVE           -0.030792446405 Eh   ::
         :: G(RRHO) contrib.            0.083135138208 Eh   ::
         :::::::::::::::::::::::::::::::::::::::::::::::::::::

           -------------------------------------------------
          | TOTAL ENERGY              -19.422672148190 Eh   |
          | TOTAL ENTHALPY            -19.300678018187 Eh   |
          | TOTAL FREE ENERGY         -19.339537009982 Eh   |
          | GRADIENT NORM               0.000453977823 Eh/α |
          | HOMO-LUMO GAP              11.764159425410 eV   |
           -------------------------------------------------

 * finished run on 2025/10/18 at 00:50:52.010
normal termination of xtb
