   * xtb version 6.7.1 (edcfbbe) compiled by 'albert@albert-system' on 2024-07-22

   ID    Z sym.   atoms
    1    1 H      1, 4, 5, 9, 11, 13
    2    6 C      2, 3, 6-8, 10
    3    7 N      12

          program call               : xtb xyz.xyz --charge -1 --alpb water --ohess
      * Solvation model:               ALPB
        Solvent                        water
        Solvent mass                       1.8000E+01 g/mol
          :  Hamiltonian                  GFN2-xTB          :
 * total energy  :   -19.0652463 Eh     change       -0.1133138E-09 Eh
 * total energy  :   -19.0678609 Eh     change       -0.2614617E-02 Eh
 * total energy  :   -19.0679719 Eh     change       -0.1110537E-03 Eh
 * total energy  :   -19.0679825 Eh     change       -0.1053025E-04 Eh
 * total energy  :   -19.0679841 Eh     change       -0.1669135E-05 Eh
   *** GEOMETRY OPTIMIZATION CONVERGED AFTER 5 ITERATIONS ***

 final structure:
================
13
 xtb: 6.7.1 (edcfbbe)
H           -3.59126553168037        3.38884635707670       -1.05849211568705
C           -0.27070504558236        3.44414476069264       -0.20679458662088
C           -2.64463676256695        3.03077638882464       -0.66331470797063
H           -1.25776532275450        0.32809924037014        0.80168390508798
H            0.71940626761362        1.78112615359311        0.73070244717059
C           -2.56542190671746        1.75388306665713       -0.12238071420319
C           -1.54510900732851        3.85044546047236       -0.70757059999256
C           -1.33863581705420        1.32319914292668        0.37586923837576
H           -3.43464574342768        1.11086860102661       -0.08948518321066
C           -0.23035468548630        2.12745868156864        0.34011892702632
H           -1.62586595924847        4.84992199974124       -1.13569015734684
N            0.82874414293030        4.18255467472265       -0.21722334754684
H            0.63036837130288        5.09820847232747       -0.64186510508198

          :  Hamiltonian                  GFN2-xTB          :
         :: gradient norm              0.000470055539 Eh/a0 ::
         :: HOMO-LUMO gap              2.865861650013 eV    ::
         :: SCC energy               -19.394906895575 Eh    ::
         :: -> dispersion             -0.010826172691 Eh    ::
         :: -> Gsolv                  -0.090500641400 Eh    ::
         :: repulsion energy           0.326922773259 Eh    ::

    * Orbital Energies and Occupations

         #    Occupation            Energy/Eh            Energy/eV
      -------------------------------------------------------------
         1        2.0000           -0.5953758             -16.2010
       ...           ...                  ...                  ...
         6        2.0000           -0.5129482             -13.9580
         7        2.0000           -0.4855911             -13.2136
         8        2.0000           -0.4670593             -12.7093
         9        2.0000           -0.4509839             -12.2719
        10        2.0000           -0.4424048             -12.0384
        11        2.0000           -0.4325694             -11.7708
        12        2.0000           -0.4264506             -11.6043
        13        2.0000           -0.3986893             -10.8489
        14        2.0000           -0.3837493             -10.4423
        15        2.0000           -0.3791153             -10.3163
        16        2.0000           -0.3618790              -9.8472
        17        2.0000           -0.3137305              -8.5370
        18        2.0000           -0.2819799              -7.6731 (HOMO)
        19                         -0.1766614              -4.8072 (LUMO)
        20                         -0.1503030              -4.0900
        21                         -0.0387243              -1.0537
        22                          0.1324465               3.6041
        23                          0.1448856               3.9425
        24                          0.1653621               4.4997
        25                          0.2035281               5.5383
        26                          0.2164807               5.8907
        27                          0.2334818               6.3534
        28                          0.2796546               7.6098
        29                          0.4289702              11.6729
       ...                                ...                  ...
        34                          0.7111998              19.3527
      -------------------------------------------------------------
                  HL-Gap            0.1053185 Eh            2.8659 eV

     #   Z          covCN         q      C6AA      α(0)
     1   1 H        0.925    -0.026     3.556     2.949
     2   6 C        2.887     0.076    26.305     8.409
     3   6 C        2.913    -0.051    29.257     8.870
     4   1 H        0.925    -0.019     3.400     2.884
     5   1 H        0.925    -0.028     3.589     2.963
     6   6 C        2.916    -0.091    30.288     9.025
     7   6 C        2.918    -0.097    30.447     9.048
     8   6 C        2.914    -0.051    29.260     8.870
     9   1 H        0.925    -0.024     3.500     2.926
    10   6 C        2.924    -0.089    30.220     9.015
    11   1 H        0.924    -0.056     4.244     3.222
    12   7 N        1.781    -0.582    37.076     9.018
    13   1 H        0.859     0.037     2.512     2.483

Wiberg/Mayer (AO) data.
largest (>0.10) Wiberg bond orders for each atom

     #   Z sym  total        # sym  WBO       # sym  WBO       # sym  WBO
 ---------------------------------------------------------------------------
     1   1 H    0.999 --     3 C    0.970
     2   6 C    3.982 --    12 N    1.469    10 C    1.215     7 C    1.213
     3   6 C    3.988 --     7 C    1.510     6 C    1.391     1 H    0.970
     4   1 H    0.999 --     8 C    0.971
     5   1 H    0.999 --    10 C    0.971
     6   6 C    3.967 --     3 C    1.391     8 C    1.373     9 H    0.973
     7   6 C    3.967 --     3 C    1.510     2 C    1.213    11 H    0.966
                            12 N    0.103
     8   6 C    3.989 --    10 C    1.530     6 C    1.373     4 H    0.971
     9   1 H    0.999 --     6 C    0.973
    10   6 C    3.977 --     8 C    1.530     2 C    1.215     5 H    0.971
    11   1 H    0.997 --     7 C    0.966
    12   7 N    2.755 --     2 C    1.469    13 H    0.975     7 C    0.103
    13   1 H    0.998 --    12 N    0.975
 ---------------------------------------------------------------------------

molecular dipole:
                 x           y           z       tot (Debye)
 q only:        0.749      -6.372       0.397
   full:        0.364      -6.226       0.235      15.862

 projected vibrational frequencies (cm⁻¹)
eigval :       -0.00    -0.00    -0.00    -0.00     0.00     0.00
eigval :      188.64   371.95   403.73   458.05   498.56   586.69
eigval :      639.25   688.71   727.27   783.49   831.73   839.82
eigval :      898.77   903.04   954.12  1073.14  1102.34  1173.44
eigval :     1191.61  1204.07  1320.91  1373.35  1380.40  1478.62
eigval :     1519.94  1531.51  1621.76  2925.54  2971.90  2985.61
eigval :     3013.02  3037.26  3173.90

   temp. (K)  partition function   enthalpy   heat capacity  entropy
                                   cal/mol     cal/K/mol   cal/K/mol   J/K/mol
 298.15  VIB   3.89                 1726.836     16.224      8.490
         ROT  0.161E+06              888.752      2.981     26.805
         INT  0.625E+06             2615.589     19.205     35.295
         TR   0.855E+27             1481.254      4.968     39.455
         TOT                        4096.8425    24.1727    74.7502   312.7548

       T/K    H(0)-H(T)+PV         H(T)/Eh          T*S/Eh         G(T)/Eh
   ------------------------------------------------------------------------
    298.15    0.652873E-02    0.106431E+00    0.355162E-01    0.709150E-01
   ------------------------------------------------------------------------

         :::::::::::::::::::::::::::::::::::::::::::::::::::::
         ::                  THERMODYNAMIC                  ::
         :::::::::::::::::::::::::::::::::::::::::::::::::::::
         :: total free energy         -18.997069135655 Eh   ::
         ::.................................................::
         :: total energy              -19.067984121524 Eh   ::
         :: zero point energy           0.099902484768 Eh   ::
         :: G(RRHO) w/o ZPVE           -0.028987498900 Eh   ::
         :: G(RRHO) contrib.            0.070914985868 Eh   ::
         :::::::::::::::::::::::::::::::::::::::::::::::::::::

           -------------------------------------------------
          | TOTAL ENERGY              -19.067984121524 Eh   |
          | TOTAL ENTHALPY            -18.961552902696 Eh   |
          | TOTAL FREE ENERGY         -18.997069135655 Eh   |
          | GRADIENT NORM               0.000470108471 Eh/α |
          | HOMO-LUMO GAP               2.865861726155 eV   |
           -------------------------------------------------

 * finished run on 2025/10/17 at 21:56:51.770
