   * xtb version 6.7.1 (edcfbbe) compiled by 'albert@albert-system' on 2024-07-22

   ID    Z sym.   atoms
    1    6 C      1, 2, 6, 8
    2    1 H      3-5, 7, 9, 10, 12-14
    3    8 O      11

          program call               : xtb xyz.xyz --alpb water --charge -1 --ohess
      * Solvation model:               ALPB
        Solvent                        water
        Solvent mass                       1.8000E+01 g/mol
          :  Hamiltonian                  GFN2-xTB          :
 * total energy  :   -17.4748183 Eh     change       -0.2176144E-09 Eh
 * total energy  :   -17.4823014 Eh     change       -0.7483040E-02 Eh
 * total energy  :   -17.4828785 Eh     change       -0.5770869E-03 Eh
 * total energy  :   -17.4829466 Eh     change       -0.6815515E-04 Eh
 * total energy  :   -17.4829486 Eh     change       -0.2006452E-05 Eh
   *** GEOMETRY OPTIMIZATION CONVERGED AFTER 5 ITERATIONS ***

 final structure:
================
14
 xtb: 6.7.1 (edcfbbe)
C           -3.84658575587100       -4.07293435517730        1.87296512634458
C           -2.85022317863940       -3.10279245375571        2.59075295711615
H           -3.52796350683241       -4.20888017510119        0.84141619699867
H           -3.81752246506785       -5.04130856704998        2.36845601580678
H           -4.86134732609774       -3.68073005998916        1.89428843084215
C           -3.39339225228013       -2.90315093886622        4.04481190732406
H           -4.41564422320901       -2.53043898086529        4.03496141458817
C           -2.98186962327003       -1.71852441390476        1.87271042387385
H           -3.35546178137896       -3.85481862768408        4.57112080456429
H           -2.75148823543118       -2.19836795567907        4.56954671848049
O           -1.58041426884036       -3.56924085559484        2.57704270727864
H           -4.00860324515654       -1.35901781737206        1.89729671445953
H           -2.33022277425217       -0.99999745456262        2.36584045822083
H           -2.65451636367321       -1.82196834439772        0.84012412410180

          :  Hamiltonian                  GFN2-xTB          :
         :: gradient norm              0.000748222977 Eh/a0 ::
         :: HOMO-LUMO gap             10.908684484862 eV    ::
         :: SCC energy               -17.680786563557 Eh    ::
         :: -> dispersion             -0.008371339629 Eh    ::
         :: -> Gsolv                  -0.113013270339 Eh    ::
         :: repulsion energy           0.197837935114 Eh    ::

    * Orbital Energies and Occupations

         #    Occupation            Energy/Eh            Energy/eV
      -------------------------------------------------------------
         1        2.0000           -0.5917932             -16.1035
       ...           ...                  ...                  ...
         4        2.0000           -0.5652565             -15.3814
         5        2.0000           -0.5096342             -13.8679
         6        2.0000           -0.4751102             -12.9284
         7        2.0000           -0.4750997             -12.9281
         8        2.0000           -0.4745169             -12.9123
         9        2.0000           -0.4493669             -12.2279
        10        2.0000           -0.4493398             -12.2272
        11        2.0000           -0.4365961             -11.8804
        12        2.0000           -0.4132627             -11.2455
        13        2.0000           -0.4132525             -11.2452
        14        2.0000           -0.3934435             -10.7061
        15        2.0000           -0.2847964              -7.7497
        16        2.0000           -0.2847937              -7.7496 (HOMO)
        17                          0.1160931               3.1591 (LUMO)
        18                          0.1196489               3.2558
        19                          0.1196661               3.2563
        20                          0.1425866               3.8800
        21                          0.1787507               4.8641
        22                          0.2064117               5.6167
        23                          0.2064460               5.6177
        24                          0.2371402               6.4529
        25                          0.2372477               6.4558
        26                          0.2604837               7.0881
        27                          0.2747888               7.4774
       ...                                ...                  ...
        29                          0.3735031              10.1635
      -------------------------------------------------------------
                  HL-Gap            0.4008868 Eh           10.9087 eV

     #   Z          covCN         q      C6AA      α(0)
     1   6 C        3.752    -0.103    22.538     6.770
     2   6 C        3.765     0.161    18.044     6.055
     3   1 H        0.925     0.004     2.985     2.702
     4   1 H        0.925     0.004     2.984     2.702
     5   1 H        0.925     0.004     2.984     2.702
     6   6 C        3.752    -0.103    22.538     6.770
     7   1 H        0.925     0.004     2.985     2.702
     8   6 C        3.752    -0.104    22.538     6.770
     9   1 H        0.925     0.004     2.985     2.702
    10   1 H        0.925     0.004     2.985     2.702
    11   8 O        0.854    -0.889    34.428     7.867
    12   1 H        0.925     0.004     2.984     2.702
    13   1 H        0.925     0.004     2.984     2.702
    14   1 H        0.925     0.004     2.985     2.702

Wiberg/Mayer (AO) data.
largest (>0.10) Wiberg bond orders for each atom

     #   Z sym  total        # sym  WBO       # sym  WBO       # sym  WBO
 ---------------------------------------------------------------------------
     1   6 C    3.992 --     4 H    0.990     3 H    0.990     5 H    0.989
                             2 C    0.949
     2   6 C    3.978 --    11 O    1.134     8 C    0.949     1 C    0.949
                             6 C    0.949
     3   1 H    1.000 --     1 C    0.990
     4   1 H    1.000 --     1 C    0.990
     5   1 H    1.000 --     1 C    0.989
     6   6 C    3.992 --     9 H    0.990    10 H    0.990     7 H    0.989
                             2 C    0.949
     7   1 H    1.000 --     6 C    0.989
     8   6 C    3.992 --    13 H    0.990    14 H    0.990    12 H    0.989
                             2 C    0.949
     9   1 H    1.000 --     6 C    0.990
    10   1 H    1.000 --     6 C    0.990
    11   8 O    1.306 --     2 C    1.134
    12   1 H    1.000 --     8 C    0.989
    13   1 H    1.000 --     8 C    0.990
    14   1 H    1.000 --     8 C    0.990
 ---------------------------------------------------------------------------

molecular dipole:
                 x           y           z       tot (Debye)
 q only:        3.530       6.545      -4.876
   full:        3.273       6.640      -4.873      22.526

 projected vibrational frequencies (cm⁻¹)
eigval :       -0.00    -0.00     0.00     0.00     0.00     0.00
eigval :      148.51   223.15   223.99   329.07   329.27   418.95
eigval :      469.32   469.36   744.66   858.74   858.84   910.43
eigval :      985.77   996.18   996.34  1148.79  1148.86  1187.99
eigval :     1348.39  1348.46  1374.12  1476.29  1489.27  1489.46
eigval :     1508.70  1508.75  1523.60  2981.19  2981.27  2990.25
eigval :     2997.72  3004.93  3004.95  3014.56  3014.67  3019.57

   temp. (K)  partition function   enthalpy   heat capacity  entropy
                                   cal/mol     cal/K/mol   cal/K/mol   J/K/mol
 298.15  VIB   11.4                 2356.247     17.819     12.743
         ROT  0.281E+05              888.752      2.981     23.341
         INT  0.322E+06             3244.999     20.800     36.084
         TR   0.605E+27             1481.254      4.968     38.767
         TOT                        4726.2530    25.7677    74.8507   313.1752

       T/K    H(0)-H(T)+PV         H(T)/Eh          T*S/Eh         G(T)/Eh
   ------------------------------------------------------------------------
    298.15    0.753176E-02    0.127191E+00    0.355640E-01    0.916271E-01
   ------------------------------------------------------------------------

         :::::::::::::::::::::::::::::::::::::::::::::::::::::
         ::                  THERMODYNAMIC                  ::
         :::::::::::::::::::::::::::::::::::::::::::::::::::::
         :: total free energy         -17.391321532733 Eh   ::
         ::.................................................::
         :: total energy              -17.482948628342 Eh   ::
         :: zero point energy           0.119659299608 Eh   ::
         :: G(RRHO) w/o ZPVE           -0.028032203999 Eh   ::
         :: G(RRHO) contrib.            0.091627095609 Eh   ::
         :::::::::::::::::::::::::::::::::::::::::::::::::::::

           -------------------------------------------------
          | TOTAL ENERGY              -17.482948628342 Eh   |
          | TOTAL ENTHALPY            -17.355757565206 Eh   |
          | TOTAL FREE ENERGY         -17.391321532733 Eh   |
          | GRADIENT NORM               0.000748239609 Eh/α |
          | HOMO-LUMO GAP              10.908683946961 eV   |
           -------------------------------------------------

 * finished run on 2025/10/18 at 02:25:59.912
