   * xtb version 6.7.1 (edcfbbe) compiled by 'albert@albert-system' on 2024-07-22

   ID    Z sym.   atoms
    1    6 C      1, 2, 6, 9, 11
    2    1 H      3-5, 7, 8, 10, 13-15, 17, 18
    3    8 O      12, 16

          program call               : xtb tb_lite_results_shiftn0p15_gp719_b0_rot270_complex.xyz --ohess --chrg -1 --alpb water
      * Solvation model:               ALPB
        Solvent                        water
        Solvent mass                       1.8000E+01 g/mol
          :  Hamiltonian                  GFN2-xTB          :
 * total energy  :   -24.7127769 Eh     change       -0.1710347E-09 Eh
 * total energy  :   -24.7159249 Eh     change       -0.3147964E-02 Eh
 * total energy  :   -24.7164602 Eh     change       -0.5353717E-03 Eh
 * total energy  :   -24.7166855 Eh     change       -0.2253024E-03 Eh
 * total energy  :   -24.7169508 Eh     change       -0.2652229E-03 Eh
 * total energy  :   -24.7170822 Eh     change       -0.1314188E-03 Eh
 * total energy  :   -24.7172437 Eh     change       -0.1615409E-03 Eh
 * total energy  :   -24.7173634 Eh     change       -0.1196698E-03 Eh
 * total energy  :   -24.7175572 Eh     change       -0.1938184E-03 Eh
 * total energy  :   -24.7177907 Eh     change       -0.2334539E-03 Eh
 * total energy  :   -24.7188649 Eh     change       -0.1009196E-04 Eh
 * total energy  :   -24.7188784 Eh     change       -0.1349974E-04 Eh
 * total energy  :   -24.7188902 Eh     change       -0.1178299E-04 Eh
 * total energy  :   -24.7189061 Eh     change       -0.1592933E-04 Eh
 * total energy  :   -24.7189169 Eh     change       -0.1074799E-04 Eh
 * total energy  :   -24.7189241 Eh     change       -0.7164603E-05 Eh
 * total energy  :   -24.7189314 Eh     change       -0.7351644E-05 Eh
 * total energy  :   -24.7189387 Eh     change       -0.7339353E-05 Eh
 * total energy  :   -24.7189435 Eh     change       -0.4767766E-05 Eh
   *** GEOMETRY OPTIMIZATION CONVERGED AFTER 33 ITERATIONS ***

 final structure:
================
18
 xtb: 6.7.1 (edcfbbe)
C           -4.89116908530054       -2.74456889021634        2.28009683956064
C           -6.08795293411173       -3.20327108713356        3.05696356406528
H           -4.79417829090184       -1.65491258528029        2.29297060092454
H           -3.96492017291798       -3.17007737394109        2.67763403772127
H           -5.01016103833982       -3.07218091640968        1.24767674252666
C           -7.11002759285923       -3.90141616397990        2.51911691920936
H           -6.11401202149301       -2.95347909110003        4.11112697160389
H           -8.32416003858419       -3.63888313456875        4.28106814079590
C           -8.24952870293409       -4.33615112415309        3.44306975943831
H           -9.18492717926573       -4.31056424548589        2.87804991726403
C           -8.01139603848983       -5.75255827959264        3.96028925418149
O           -7.18142634633745       -4.26151057359532        1.26332109214833
H           -7.07879194120001       -5.79063640716292        4.52004149112112
H           -8.82996519972664       -6.07327803091245        4.60149859995403
H           -7.93580391025427       -6.43577146290459        3.11644534346591
O           -9.44209883765569       -5.12553242802608        0.33803996625675
H           -8.57075631751735       -4.78824857569134        0.73096685733183
H           -9.25522946926524       -5.23574354141879       -0.59893776234980

          :  Hamiltonian                  GFN2-xTB          :
         :: gradient norm              0.000845033444 Eh/a0 ::
         :: HOMO-LUMO gap              4.636383689884 eV    ::
         :: SCC energy               -25.001624194963 Eh    ::
         :: -> dispersion             -0.011149427593 Eh    ::
         :: -> Gsolv                  -0.105465598501 Eh    ::
         :: repulsion energy           0.282680679816 Eh    ::

    * Orbital Energies and Occupations

         #    Occupation            Energy/Eh            Energy/eV
      -------------------------------------------------------------
         1        2.0000           -0.6419892             -17.4694
       ...           ...                  ...                  ...
        10        2.0000           -0.4841817             -13.1753
        11        2.0000           -0.4734769             -12.8840
        12        2.0000           -0.4666968             -12.6995
        13        2.0000           -0.4601285             -12.5207
        14        2.0000           -0.4497182             -12.2375
        15        2.0000           -0.4438140             -12.0768
        16        2.0000           -0.4257600             -11.5855
        17        2.0000           -0.4127307             -11.2310
        18        2.0000           -0.4078835             -11.0991
        19        2.0000           -0.4060242             -11.0485
        20        2.0000           -0.4042060             -10.9990
        21        2.0000           -0.3285285              -8.9397
        22        2.0000           -0.2976687              -8.1000 (HOMO)
        23                         -0.1272849              -3.4636 (LUMO)
        24                          0.1104792               3.0063
        25                          0.1175432               3.1985
        26                          0.1533183               4.1720
        27                          0.1606728               4.3721
        28                          0.1792636               4.8780
        29                          0.1869343               5.0867
        30                          0.1924239               5.2361
        31                          0.2037326               5.5438
        32                          0.2322607               6.3201
        33                          0.2360127               6.4222
       ...                                ...                  ...
        39                          0.6412302              17.4488
      -------------------------------------------------------------
                  HL-Gap            0.1703839 Eh            4.6364 eV

     #   Z          covCN         q      C6AA      α(0)
     1   6 C        3.753    -0.075    21.987     6.687
     2   6 C        2.890    -0.159    32.102     9.289
     3   1 H        0.924     0.005     2.968     2.694
     4   1 H        0.924     0.006     2.961     2.691
     5   1 H        0.925     0.011     2.873     2.651
     6   6 C        2.816     0.134    25.055     8.201
     7   1 H        0.925    -0.045     3.969     3.115
     8   1 H        0.924     0.003     3.015     2.715
     9   6 C        3.804    -0.070    21.828     6.651
    10   1 H        0.924     0.019     2.754     2.595
    11   6 C        3.752    -0.092    22.307     6.735
    12   8 O        0.860    -0.734    29.644     7.300
    13   1 H        0.925     0.026     2.640     2.541
    14   1 H        0.925     0.035     2.515     2.480
    15   1 H        0.925     0.027     2.634     2.538
    16   8 O        1.601    -0.723    28.322     7.182
    17   1 H        0.799     0.300     0.723     1.336
    18   1 H        0.805     0.330     0.637     1.254

Wiberg/Mayer (AO) data.
largest (>0.10) Wiberg bond orders for each atom

     #   Z sym  total        # sym  WBO       # sym  WBO       # sym  WBO
 ---------------------------------------------------------------------------
     1   6 C    3.997 --     2 C    1.027     5 H    0.987     3 H    0.979
                             4 H    0.979
     2   6 C    3.906 --     6 C    1.677     1 C    1.027     7 H    0.970
                            12 O    0.191
     3   1 H    1.000 --     1 C    0.979
     4   1 H    1.000 --     1 C    0.979
     5   1 H    1.000 --     1 C    0.987
     6   6 C    3.963 --     2 C    1.677    12 O    1.265     9 C    0.968
     7   1 H    0.998 --     2 C    0.970
     8   1 H    1.000 --     9 C    0.979
     9   6 C    3.994 --    11 C    1.010     8 H    0.979    10 H    0.975
                             6 C    0.968
    10   1 H    1.000 --     9 C    0.975
    11   6 C    3.998 --     9 C    1.010    13 H    0.989    15 H    0.989
                            14 H    0.987
    12   8 O    1.700 --     6 C    1.265     2 C    0.191    17 H    0.117
    13   1 H    0.999 --    11 C    0.989
    14   1 H    0.998 --    11 C    0.987
    15   1 H    0.999 --    11 C    0.989
    16   8 O    1.737 --    18 H    0.890    17 H    0.787
    17   1 H    0.910 --    16 O    0.787    12 O    0.117
    18   1 H    0.891 --    16 O    0.890
 ---------------------------------------------------------------------------

molecular dipole:
                 x           y           z       tot (Debye)
 q only:       14.024       7.802      -3.371
   full:       14.198       7.879      -3.316      42.124

 projected vibrational frequencies (cm⁻¹)
eigval :       -0.00    -0.00    -0.00    -0.00    -0.00     0.00
eigval :       21.42    44.75    87.71   104.27   145.57   164.39
eigval :      187.26   207.71   289.03   319.92   425.11   557.70
eigval :      598.00   632.05   698.44   821.52   844.68   904.69
eigval :      999.04  1043.70  1052.60  1064.97  1083.62  1124.28
eigval :     1198.45  1242.08  1309.18  1341.49  1390.56  1400.17
eigval :     1482.28  1491.46  1499.28  1501.32  1507.02  1553.75
eigval :     1673.08  2517.01  2899.57  2931.91  2942.65  2966.09
eigval :     2994.80  3004.51  3006.15  3014.17  3024.83  3621.08

   temp. (K)  partition function   enthalpy   heat capacity  entropy
                                   cal/mol     cal/K/mol   cal/K/mol   J/K/mol
 298.15  VIB  0.979E+04             4901.035     27.268     31.710
         ROT  0.397E+06              888.752      2.981     28.599
         INT  0.389E+10             5789.787     30.249     60.309
         TR   0.101E+28             1481.254      4.968     39.792
         TOT                        7271.0413    35.2168   100.1012   418.8236

       T/K    H(0)-H(T)+PV         H(T)/Eh          T*S/Eh         G(T)/Eh
   ------------------------------------------------------------------------
    298.15    0.115871E-01    0.159521E+00    0.475613E-01    0.111959E+00
   ------------------------------------------------------------------------

         :::::::::::::::::::::::::::::::::::::::::::::::::::::
         ::                  THERMODYNAMIC                  ::
         :::::::::::::::::::::::::::::::::::::::::::::::::::::
         :: total free energy         -24.606984158665 Eh   ::
         ::.................................................::
         :: total energy              -24.718943513901 Eh   ::
         :: zero point energy           0.147933545835 Eh   ::
         :: G(RRHO) w/o ZPVE           -0.035974190599 Eh   ::
         :: G(RRHO) contrib.            0.111959355236 Eh   ::
         :::::::::::::::::::::::::::::::::::::::::::::::::::::

           -------------------------------------------------
          | TOTAL ENERGY              -24.718943513901 Eh   |
          | TOTAL ENTHALPY            -24.559422826128 Eh   |
          | TOTAL FREE ENERGY         -24.606984158665 Eh   |
          | GRADIENT NORM               0.000844755601 Eh/α |
          | HOMO-LUMO GAP               4.636381060828 eV   |
           -------------------------------------------------

 * finished run on 2025/10/18 at 04:15:13.090
normal termination of xtb
