   * xtb version 6.7.1 (edcfbbe) compiled by 'albert@albert-system' on 2024-07-22

   ID    Z sym.   atoms
    1    6 C      1, 2, 6, 9, 11
    2    1 H      3-5, 7, 8, 10, 13-15, 17, 18
    3    8 O      12, 16

          program call               : xtb tb_lite_results_shiftn0p2_gp719_b0_rot270_complex.xyz --ohess --chrg -1 --alpb water
      * Solvation model:               ALPB
        Solvent                        water
        Solvent mass                       1.8000E+01 g/mol
          :  Hamiltonian                  GFN2-xTB          :
 * total energy  :   -24.7126156 Eh     change       -0.5692158E-10 Eh
 * total energy  :   -24.7160952 Eh     change       -0.3479627E-02 Eh
 * total energy  :   -24.7165618 Eh     change       -0.4666033E-03 Eh
 * total energy  :   -24.7167135 Eh     change       -0.1517119E-03 Eh
 * total energy  :   -24.7169749 Eh     change       -0.2614071E-03 Eh
 * total energy  :   -24.7171305 Eh     change       -0.1556016E-03 Eh
 * total energy  :   -24.7172778 Eh     change       -0.1473011E-03 Eh
 * total energy  :   -24.7174393 Eh     change       -0.1615099E-03 Eh
 * total energy  :   -24.7175944 Eh     change       -0.1550906E-03 Eh
 * total energy  :   -24.7178043 Eh     change       -0.2098560E-03 Eh
 * total energy  :   -24.7188593 Eh     change       -0.1454289E-04 Eh
 * total energy  :   -24.7188692 Eh     change       -0.9868862E-05 Eh
 * total energy  :   -24.7188903 Eh     change       -0.2111772E-04 Eh
 * total energy  :   -24.7189067 Eh     change       -0.1636258E-04 Eh
 * total energy  :   -24.7189171 Eh     change       -0.1037071E-04 Eh
 * total energy  :   -24.7189263 Eh     change       -0.9267518E-05 Eh
 * total energy  :   -24.7189371 Eh     change       -0.1081161E-04 Eh
 * total energy  :   -24.7189431 Eh     change       -0.5924151E-05 Eh
 * total energy  :   -24.7189446 Eh     change       -0.1486259E-05 Eh
   *** GEOMETRY OPTIMIZATION CONVERGED AFTER 33 ITERATIONS ***

 final structure:
================
18
 xtb: 6.7.1 (edcfbbe)
C           -4.88456934613044       -2.73784870092382        2.28539053903445
C           -6.08145649022933       -3.19736153297472        3.06172480514454
H           -4.78761182645244       -1.64914497747194        2.30091015021033
H           -3.95868987652854       -3.16409908925347        2.68134703677614
H           -5.00358399756768       -3.06326879039812        1.25312408375999
C           -7.09912652259515       -3.90281200982257        2.52580858773549
H           -6.11128801263538       -2.94156194907946        4.11391291342581
H           -8.31076427887948       -3.64075616131249        4.28966702757304
C           -8.24050131488251       -4.33487159677866        3.44884092350453
H           -9.17585698792051       -4.30128452865989        2.88432755202142
C           -8.01099824679332       -5.75466484416524        3.96003069156493
O           -7.16610971013545       -4.27117504289747        1.27277625150162
H           -7.07794773550449       -5.80117934852743        4.51819967828493
H           -8.83065001640386       -6.07259116878547        4.60119931183316
H           -7.94099835696546       -6.43466879473693        3.11330456457301
O           -9.43318918524341       -5.10830322897022        0.33482305553527
H           -8.56133569069197       -4.78118533308003        0.73233539510630
H           -9.23751202440522       -5.23265339277776       -0.59893081140888

          :  Hamiltonian                  GFN2-xTB          :
         :: gradient norm              0.000634762500 Eh/a0 ::
         :: HOMO-LUMO gap              4.641207803778 eV    ::
         :: SCC energy               -25.002264623663 Eh    ::
         :: -> dispersion             -0.011146721771 Eh    ::
         :: -> Gsolv                  -0.105477352383 Eh    ::
         :: repulsion energy           0.283320064639 Eh    ::

    * Orbital Energies and Occupations

         #    Occupation            Energy/Eh            Energy/eV
      -------------------------------------------------------------
         1        2.0000           -0.6421814             -17.4746
       ...           ...                  ...                  ...
        10        2.0000           -0.4842524             -13.1772
        11        2.0000           -0.4737012             -12.8901
        12        2.0000           -0.4666377             -12.6979
        13        2.0000           -0.4601128             -12.5203
        14        2.0000           -0.4497849             -12.2393
        15        2.0000           -0.4437670             -12.0755
        16        2.0000           -0.4257552             -11.5854
        17        2.0000           -0.4127822             -11.2324
        18        2.0000           -0.4078803             -11.0990
        19        2.0000           -0.4061320             -11.0514
        20        2.0000           -0.4041717             -10.9981
        21        2.0000           -0.3283551              -8.9350
        22        2.0000           -0.2975710              -8.0973 (HOMO)
        23                         -0.1270098              -3.4561 (LUMO)
        24                          0.1105149               3.0073
        25                          0.1179360               3.2092
        26                          0.1536250               4.1803
        27                          0.1609855               4.3806
        28                          0.1798922               4.8951
        29                          0.1872612               5.0956
        30                          0.1929379               5.2501
        31                          0.2043785               5.5614
        32                          0.2333458               6.3497
        33                          0.2362846               6.4296
       ...                                ...                  ...
        39                          0.6424439              17.4818
      -------------------------------------------------------------
                  HL-Gap            0.1705612 Eh            4.6412 eV

     #   Z          covCN         q      C6AA      α(0)
     1   6 C        3.753    -0.075    21.990     6.687
     2   6 C        2.890    -0.159    32.109     9.290
     3   1 H        0.924     0.006     2.964     2.692
     4   1 H        0.924     0.006     2.962     2.691
     5   1 H        0.925     0.011     2.872     2.650
     6   6 C        2.816     0.134    25.053     8.201
     7   1 H        0.925    -0.045     3.972     3.117
     8   1 H        0.924     0.002     3.018     2.717
     9   6 C        3.804    -0.070    21.828     6.651
    10   1 H        0.924     0.018     2.757     2.597
    11   6 C        3.752    -0.091    22.304     6.735
    12   8 O        0.860    -0.734    29.651     7.301
    13   1 H        0.925     0.026     2.642     2.542
    14   1 H        0.925     0.035     2.517     2.481
    15   1 H        0.925     0.027     2.633     2.537
    16   8 O        1.601    -0.722    28.304     7.180
    17   1 H        0.799     0.300     0.723     1.336
    18   1 H        0.805     0.330     0.636     1.253

Wiberg/Mayer (AO) data.
largest (>0.10) Wiberg bond orders for each atom

     #   Z sym  total        # sym  WBO       # sym  WBO       # sym  WBO
 ---------------------------------------------------------------------------
     1   6 C    3.997 --     2 C    1.027     5 H    0.987     3 H    0.980
                             4 H    0.979
     2   6 C    3.906 --     6 C    1.677     1 C    1.027     7 H    0.970
                            12 O    0.191
     3   1 H    1.000 --     1 C    0.980
     4   1 H    1.000 --     1 C    0.979
     5   1 H    1.000 --     1 C    0.987
     6   6 C    3.963 --     2 C    1.677    12 O    1.265     9 C    0.967
     7   1 H    0.998 --     2 C    0.970
     8   1 H    1.000 --     9 C    0.979
     9   6 C    3.994 --    11 C    1.010     8 H    0.979    10 H    0.975
                             6 C    0.967
    10   1 H    1.000 --     9 C    0.975
    11   6 C    3.998 --     9 C    1.010    13 H    0.989    15 H    0.989
                            14 H    0.987
    12   8 O    1.699 --     6 C    1.265     2 C    0.191    17 H    0.116
    13   1 H    0.999 --    11 C    0.989
    14   1 H    0.998 --    11 C    0.987
    15   1 H    0.999 --    11 C    0.989
    16   8 O    1.737 --    18 H    0.890    17 H    0.788
    17   1 H    0.910 --    16 O    0.788    12 O    0.116
    18   1 H    0.891 --    16 O    0.890
 ---------------------------------------------------------------------------

molecular dipole:
                 x           y           z       tot (Debye)
 q only:       14.002       7.792      -3.387
   full:       14.178       7.866      -3.330      42.072

 projected vibrational frequencies (cm⁻¹)
eigval :       -0.00    -0.00    -0.00    -0.00     0.00     0.00
eigval :        9.71    38.73    86.79   114.31   128.21   161.15
eigval :      186.47   205.70   288.19   318.46   424.47   556.61
eigval :      596.82   631.34   696.43   820.92   844.01   897.99
eigval :      998.72  1042.21  1052.71  1064.31  1083.87  1124.13
eigval :     1198.70  1242.15  1309.15  1341.70  1390.21  1399.35
eigval :     1482.13  1491.38  1498.52  1500.92  1506.89  1553.45
eigval :     1674.63  2534.06  2907.11  2939.52  2943.91  2966.55
eigval :     2998.93  3004.85  3014.04  3015.25  3026.11  3616.39

   temp. (K)  partition function   enthalpy   heat capacity  entropy
                                   cal/mol     cal/K/mol   cal/K/mol   J/K/mol
 298.15  VIB  0.253E+05             4945.238     27.162     32.614
         ROT  0.397E+06              888.752      2.981     28.601
         INT  0.101E+11             5833.991     30.143     61.215
         TR   0.101E+28             1481.254      4.968     39.792
         TOT                        7315.2448    35.1110   101.0074   422.6148

       T/K    H(0)-H(T)+PV         H(T)/Eh          T*S/Eh         G(T)/Eh
   ------------------------------------------------------------------------
    298.15    0.116576E-01    0.159575E+00    0.479919E-01    0.111583E+00
   ------------------------------------------------------------------------

         :::::::::::::::::::::::::::::::::::::::::::::::::::::
         ::                  THERMODYNAMIC                  ::
         :::::::::::::::::::::::::::::::::::::::::::::::::::::
         :: total free energy         -24.607361554235 Eh   ::
         ::.................................................::
         :: total energy              -24.718944557680 Eh   ::
         :: zero point energy           0.147917277355 Eh   ::
         :: G(RRHO) w/o ZPVE           -0.036334273910 Eh   ::
         :: G(RRHO) contrib.            0.111583003445 Eh   ::
         :::::::::::::::::::::::::::::::::::::::::::::::::::::

           -------------------------------------------------
          | TOTAL ENERGY              -24.718944557680 Eh   |
          | TOTAL ENTHALPY            -24.559369695767 Eh   |
          | TOTAL FREE ENERGY         -24.607361554235 Eh   |
          | GRADIENT NORM               0.000634825941 Eh/α |
          | HOMO-LUMO GAP               4.641205240483 eV   |
           -------------------------------------------------

 * finished run on 2025/10/18 at 04:15:07.151
normal termination of xtb
