   * xtb version 6.7.1 (edcfbbe) compiled by 'albert@albert-system' on 2024-07-22

   ID    Z sym.   atoms
    1    6 C      1, 2, 6, 9, 11
    2    1 H      3-5, 7, 8, 10, 13-15
    3    8 O      12

          program call               : xtb tb_lite_results_shiftn0p25_gp719_b0_rot270_solute.xyz --ohess --chrg -1
          :  Hamiltonian                  GFN2-xTB          :
 * total energy  :   -19.5179998 Eh     change       -0.4280309E-10 Eh
 * total energy  :   -19.5202149 Eh     change       -0.2215137E-02 Eh
 * total energy  :   -19.5206428 Eh     change       -0.4278218E-03 Eh
 * total energy  :   -19.5207661 Eh     change       -0.1233157E-03 Eh
 * total energy  :   -19.5209097 Eh     change       -0.1435754E-03 Eh
 * total energy  :   -19.5210528 Eh     change       -0.1431460E-03 Eh
 * total energy  :   -19.5212367 Eh     change       -0.1838612E-03 Eh
 * total energy  :   -19.5216873 Eh     change       -0.4506614E-03 Eh
 * total energy  :   -19.5217993 Eh     change       -0.1119386E-03 Eh
 * total energy  :   -19.5221444 Eh     change       -0.3451012E-03 Eh
 * total energy  :   -19.5225251 Eh     change       -0.7430829E-05 Eh
 * total energy  :   -19.5225301 Eh     change       -0.5080765E-05 Eh
 * total energy  :   -19.5225369 Eh     change       -0.6790176E-05 Eh
 * total energy  :   -19.5225539 Eh     change       -0.1697483E-04 Eh
 * total energy  :   -19.5225719 Eh     change       -0.1797433E-04 Eh
 * total energy  :   -19.5225938 Eh     change       -0.2189558E-04 Eh
 * total energy  :   -19.5226171 Eh     change       -0.2330238E-04 Eh
 * total energy  :   -19.5226278 Eh     change       -0.1070756E-04 Eh
 * total energy  :   -19.5226321 Eh     change       -0.4296594E-05 Eh
   *** GEOMETRY OPTIMIZATION CONVERGED AFTER 24 ITERATIONS ***

 final structure:
================
15
 xtb: 6.7.1 (edcfbbe)
C           -4.88696214614740       -2.63896874321658        2.21446997977950
C           -6.03089043527449       -3.09019562770155        3.07176891062623
H           -4.89008743209264       -1.55162672639651        2.03757200516638
H           -3.90670847825783       -2.88775079021463        2.64838280578394
H           -4.97376488338009       -3.14051933224222        1.25223023420319
C           -6.98385691168163       -3.95218660376557        2.62481949515546
H           -6.07572409939808       -2.68696271221524        4.07944584637589
H           -7.93547078869447       -3.82490522811916        4.60121854744593
C           -8.11485246856632       -4.30548488357678        3.63467903077149
H           -9.06119724446920       -3.92340013731139        3.23403375925666
C           -8.22241822949472       -5.81580721016985        3.79986090773315
O           -7.05656600137043       -4.49448221358316        1.47920637377490
H           -7.34426321228449       -6.20345892863433        4.31587877904419
H           -9.11514876151764       -6.10924060188451        4.36099193390832
H           -8.26006141687214       -6.26447756167759        2.80876461860817

          :  Hamiltonian                  GFN2-xTB          :
         :: gradient norm              0.000685088519 Eh/a0 ::
         :: HOMO-LUMO gap              4.601556880694 eV    ::
         :: SCC energy               -19.775848164023 Eh    ::
         :: -> dispersion             -0.009441045340 Eh    ::
         :: repulsion energy           0.253216079776 Eh    ::

    * Orbital Energies and Occupations

         #    Occupation            Energy/Eh            Energy/eV
      -------------------------------------------------------------
         1        2.0000           -0.4445463             -12.0967
       ...           ...                  ...                  ...
         6        2.0000           -0.3395719              -9.2402
         7        2.0000           -0.3356792              -9.1343
         8        2.0000           -0.3142515              -8.5512
         9        2.0000           -0.3032636              -8.2522
        10        2.0000           -0.3001633              -8.1679
        11        2.0000           -0.2923355              -7.9549
        12        2.0000           -0.2808295              -7.6418
        13        2.0000           -0.2586791              -7.0390
        14        2.0000           -0.2432551              -6.6193
        15        2.0000           -0.2260636              -6.1515
        16        2.0000           -0.2248970              -6.1198
        17        2.0000           -0.1311102              -3.5677
        18        2.0000           -0.1053729              -2.8673 (HOMO)
        19                          0.0637313               1.7342 (LUMO)
        20                          0.2611307               7.1057
        21                          0.3090944               8.4109
        22                          0.3093431               8.4177
        23                          0.3173566               8.6357
        24                          0.3382204               9.2034
        25                          0.3445783               9.3765
        26                          0.3631854               9.8828
        27                          0.3783370              10.2951
        28                          0.3946575              10.7392
        29                          0.4101852              11.1617
       ...                                ...                  ...
        33                          0.8439476              22.9650
      -------------------------------------------------------------
                  HL-Gap            0.1691042 Eh            4.6016 eV

     #   Z          covCN         q      C6AA      α(0)
     1   6 C        3.751    -0.059    21.696     6.643
     2   6 C        2.889    -0.179    32.683     9.373
     3   1 H        0.923    -0.036     3.765     3.034
     4   1 H        0.923    -0.035     3.751     3.029
     5   1 H        0.925     0.019     2.744     2.590
     6   6 C        2.813     0.158    24.580     8.123
     7   1 H        0.925    -0.075     4.755     3.410
     8   1 H        0.924    -0.023     3.494     2.923
     9   6 C        3.801    -0.062    21.689     6.631
    10   1 H        0.924    -0.010     3.241     2.816
    11   6 C        3.751    -0.075    21.998     6.689
    12   8 O        0.857    -0.647    27.309     7.006
    13   1 H        0.925     0.004     2.990     2.704
    14   1 H        0.924    -0.019     3.406     2.886
    15   1 H        0.925     0.040     2.453     2.449

Wiberg/Mayer (AO) data.
largest (>0.10) Wiberg bond orders for each atom

     #   Z sym  total        # sym  WBO       # sym  WBO       # sym  WBO
 ---------------------------------------------------------------------------
     1   6 C    3.987 --     2 C    1.022     5 H    0.986     4 H    0.978
                             3 H    0.977
     2   6 C    3.845 --     6 C    1.586     1 C    1.022     7 H    0.967
                            12 O    0.235
     3   1 H    0.999 --     1 C    0.977
     4   1 H    0.998 --     1 C    0.978
     5   1 H    1.000 --     1 C    0.986
     6   6 C    3.967 --     2 C    1.586    12 O    1.413     9 C    0.925
     7   1 H    0.994 --     2 C    0.967
     8   1 H    0.999 --     9 C    0.980
     9   6 C    3.975 --    11 C    1.016     8 H    0.980    10 H    0.976
                             6 C    0.925
    10   1 H    1.000 --     9 C    0.976
    11   6 C    3.996 --     9 C    1.016    13 H    0.990    14 H    0.987
                            15 H    0.985
    12   8 O    1.748 --     6 C    1.413     2 C    0.235
    13   1 H    1.000 --    11 C    0.990
    14   1 H    0.999 --    11 C    0.987
    15   1 H    0.998 --    11 C    0.985
 ---------------------------------------------------------------------------

molecular dipole:
                 x           y           z       tot (Debye)
 q only:       12.695       7.496      -4.301
   full:       12.693       7.602      -4.002      38.957

 projected vibrational frequencies (cm⁻¹)
eigval :       -0.00    -0.00    -0.00     0.00     0.00     0.00
eigval :       28.22   151.40   169.54   193.79   234.12   273.12
eigval :      410.00   527.29   601.26   670.40   812.59   823.37
eigval :      993.16  1021.60  1039.03  1059.87  1078.48  1108.77
eigval :     1201.56  1249.95  1289.98  1372.35  1385.44  1412.35
eigval :     1487.21  1502.61  1504.04  1514.83  1525.79  1697.76
eigval :     2799.95  2852.07  2905.16  2923.79  2932.31  2965.66
eigval :     3000.07  3016.06  3018.93

   temp. (K)  partition function   enthalpy   heat capacity  entropy
                                   cal/mol     cal/K/mol   cal/K/mol   J/K/mol
 298.15  VIB   137.                 3060.869     19.229     18.369
         ROT  0.161E+06              888.752      2.981     26.806
         INT  0.220E+08             3949.622     22.210     45.175
         TR   0.760E+27             1481.254      4.968     39.220
         TOT                        5430.8755    27.1779    84.3949   353.1083

       T/K    H(0)-H(T)+PV         H(T)/Eh          T*S/Eh         G(T)/Eh
   ------------------------------------------------------------------------
    298.15    0.865465E-02    0.133393E+00    0.400987E-01    0.932945E-01
   ------------------------------------------------------------------------

         :::::::::::::::::::::::::::::::::::::::::::::::::::::
         ::                  THERMODYNAMIC                  ::
         :::::::::::::::::::::::::::::::::::::::::::::::::::::
         :: total free energy         -19.429337626143 Eh   ::
         ::.................................................::
         :: total energy              -19.522632084248 Eh   ::
         :: zero point energy           0.124738553370 Eh   ::
         :: G(RRHO) w/o ZPVE           -0.031444095264 Eh   ::
         :: G(RRHO) contrib.            0.093294458106 Eh   ::
         :::::::::::::::::::::::::::::::::::::::::::::::::::::

           -------------------------------------------------
          | TOTAL ENERGY              -19.522632084248 Eh   |
          | TOTAL ENTHALPY            -19.389238879957 Eh   |
          | TOTAL FREE ENERGY         -19.429337626143 Eh   |
          | GRADIENT NORM               0.000685204711 Eh/α |
          | HOMO-LUMO GAP               4.601559432126 eV   |
           -------------------------------------------------

 * finished run on 2025/10/18 at 04:15:18.476
normal termination of xtb
