   * xtb version 6.7.1 (edcfbbe) compiled by 'albert@albert-system' on 2024-07-22

   ID    Z sym.   atoms
    1    6 C      1, 2, 6, 9, 11
    2    1 H      3-5, 7, 8, 10, 13-15, 17, 18
    3    8 O      12, 16

          program call               : xtb tb_lite_results_shiftn0p2_gp719_b0_rot0_complex.xyz --ohess --chrg -1 --alpb water
      * Solvation model:               ALPB
        Solvent                        water
        Solvent mass                       1.8000E+01 g/mol
          :  Hamiltonian                  GFN2-xTB          :
 * total energy  :   -24.7118155 Eh     change       -0.5357847E-09 Eh
 * total energy  :   -24.7153402 Eh     change       -0.3524667E-02 Eh
 * total energy  :   -24.7158218 Eh     change       -0.4816211E-03 Eh
 * total energy  :   -24.7159894 Eh     change       -0.1676189E-03 Eh
 * total energy  :   -24.7162453 Eh     change       -0.2558159E-03 Eh
 * total energy  :   -24.7164788 Eh     change       -0.2335935E-03 Eh
 * total energy  :   -24.7166331 Eh     change       -0.1542043E-03 Eh
 * total energy  :   -24.7167855 Eh     change       -0.1524406E-03 Eh
 * total energy  :   -24.7169610 Eh     change       -0.1755105E-03 Eh
 * total energy  :   -24.7171260 Eh     change       -0.1649602E-03 Eh
 * total energy  :   -24.7188498 Eh     change       -0.9919351E-05 Eh
 * total energy  :   -24.7188551 Eh     change       -0.5378644E-05 Eh
 * total energy  :   -24.7188589 Eh     change       -0.3794109E-05 Eh
 * total energy  :   -24.7188687 Eh     change       -0.9795573E-05 Eh
 * total energy  :   -24.7180852 Eh     change        0.7835501E-03 Eh
 * total energy  :   -24.7188660 Eh     change       -0.7807786E-03 Eh
 * total energy  :   -24.7188888 Eh     change       -0.2280640E-04 Eh
 * total energy  :   -24.7188958 Eh     change       -0.6994768E-05 Eh
 * total energy  :   -24.7188999 Eh     change       -0.4133478E-05 Eh
   *** GEOMETRY OPTIMIZATION CONVERGED AFTER 38 ITERATIONS ***

 final structure:
================
18
 xtb: 6.7.1 (edcfbbe)
C           -4.90770015717326       -2.74391548635732        2.24542396936468
C           -6.06770523637832       -3.20862878605431        3.07294623556609
H           -4.76131477272928       -1.66371994415706        2.32763255156843
H           -3.97601536937439       -3.23338904031595        2.54381917289298
H           -5.11121231076095       -2.99186603213291        1.20473290399670
C           -7.13619019370774       -3.86113698226228        2.56924817135748
H           -6.02479334577360       -3.00510188793438        4.13615261930905
H           -8.24046307037239       -3.63941726272117        4.40737787579709
C           -8.23116841116435       -4.30581761319956        3.54151663490086
H           -9.19640711206703       -4.23797201671094        3.03328668543996
C           -8.00123685928998       -5.74581097967958        3.99236235998382
O           -7.29137553309183       -4.16337061316920        1.30652095529494
H           -7.04012173340639       -5.82793051071523        4.49622524747268
H           -8.79064194453960       -6.07058000052783        4.66740231377377
H           -7.99202213134027       -6.39802902503526        3.12131354465684
O           -9.58859992496576       -5.04186032642023        0.48190195367108
H           -8.69721711311096       -4.72115490720758        0.83703252740028
H           -9.59161268731053       -4.76145929964225       -0.43783418989846

          :  Hamiltonian                  GFN2-xTB          :
         :: gradient norm              0.000860885484 Eh/a0 ::
         :: HOMO-LUMO gap              4.638245452808 eV    ::
         :: SCC energy               -25.002214506220 Eh    ::
         :: -> dispersion             -0.011153088386 Eh    ::
         :: -> Gsolv                  -0.105346278600 Eh    ::
         :: repulsion energy           0.283314612890 Eh    ::

    * Orbital Energies and Occupations

         #    Occupation            Energy/Eh            Energy/eV
      -------------------------------------------------------------
         1        2.0000           -0.6423672             -17.4797
       ...           ...                  ...                  ...
        10        2.0000           -0.4843046             -13.1786
        11        2.0000           -0.4736458             -12.8886
        12        2.0000           -0.4667882             -12.7020
        13        2.0000           -0.4600970             -12.5199
        14        2.0000           -0.4497212             -12.2375
        15        2.0000           -0.4438181             -12.0769
        16        2.0000           -0.4258121             -11.5869
        17        2.0000           -0.4130767             -11.2404
        18        2.0000           -0.4076708             -11.0933
        19        2.0000           -0.4064483             -11.0600
        20        2.0000           -0.4040447             -10.9946
        21        2.0000           -0.3283971              -8.9361
        22        2.0000           -0.2974590              -8.0943 (HOMO)
        23                         -0.1270065              -3.4560 (LUMO)
        24                          0.1103623               3.0031
        25                          0.1188341               3.2336
        26                          0.1537987               4.1851
        27                          0.1609714               4.3803
        28                          0.1791596               4.8752
        29                          0.1875897               5.1046
        30                          0.1925962               5.2408
        31                          0.2036949               5.5428
        32                          0.2331896               6.3454
        33                          0.2361427               6.4258
       ...                                ...                  ...
        39                          0.6416382              17.4599
      -------------------------------------------------------------
                  HL-Gap            0.1704525 Eh            4.6382 eV

     #   Z          covCN         q      C6AA      α(0)
     1   6 C        3.753    -0.075    21.987     6.686
     2   6 C        2.890    -0.159    32.115     9.291
     3   1 H        0.924     0.006     2.959     2.690
     4   1 H        0.924     0.005     2.974     2.697
     5   1 H        0.925     0.011     2.874     2.651
     6   6 C        2.816     0.134    25.052     8.201
     7   1 H        0.925    -0.045     3.974     3.118
     8   1 H        0.924     0.003     3.012     2.714
     9   6 C        3.804    -0.070    21.828     6.651
    10   1 H        0.924     0.018     2.759     2.598
    11   6 C        3.752    -0.092    22.308     6.735
    12   8 O        0.860    -0.734    29.657     7.301
    13   1 H        0.925     0.026     2.643     2.542
    14   1 H        0.925     0.035     2.517     2.481
    15   1 H        0.925     0.026     2.637     2.539
    16   8 O        1.601    -0.721    28.275     7.176
    17   1 H        0.799     0.300     0.723     1.336
    18   1 H        0.805     0.330     0.636     1.253

Wiberg/Mayer (AO) data.
largest (>0.10) Wiberg bond orders for each atom

     #   Z sym  total        # sym  WBO       # sym  WBO       # sym  WBO
 ---------------------------------------------------------------------------
     1   6 C    3.997 --     2 C    1.027     5 H    0.987     3 H    0.980
                             4 H    0.979
     2   6 C    3.906 --     6 C    1.676     1 C    1.027     7 H    0.970
                            12 O    0.192
     3   1 H    1.000 --     1 C    0.980
     4   1 H    1.000 --     1 C    0.979
     5   1 H    1.000 --     1 C    0.987
     6   6 C    3.963 --     2 C    1.676    12 O    1.266     9 C    0.967
     7   1 H    0.998 --     2 C    0.970
     8   1 H    1.000 --     9 C    0.979
     9   6 C    3.994 --    11 C    1.010     8 H    0.979    10 H    0.975
                             6 C    0.967
    10   1 H    1.000 --     9 C    0.975
    11   6 C    3.998 --     9 C    1.010    13 H    0.989    15 H    0.989
                            14 H    0.987
    12   8 O    1.699 --     6 C    1.266     2 C    0.192    17 H    0.115
    13   1 H    0.999 --    11 C    0.989
    14   1 H    0.998 --    11 C    0.987
    15   1 H    0.999 --    11 C    0.989
    16   8 O    1.739 --    18 H    0.890    17 H    0.789
    17   1 H    0.910 --    16 O    0.789    12 O    0.115
    18   1 H    0.891 --    16 O    0.890
 ---------------------------------------------------------------------------

molecular dipole:
                 x           y           z       tot (Debye)
 q only:       14.061       7.899      -3.477
   full:       14.220       8.028      -3.423      42.408

 projected vibrational frequencies (cm⁻¹)
eigval :       -0.00    -0.00     0.00     0.00     0.00     0.00
eigval :     -160.08   -19.61    36.55    87.11   133.41   160.89
eigval :      185.59   208.66   288.25   318.32   423.60   546.47
eigval :      582.53   631.99   696.16   820.94   844.21   893.96
eigval :      998.84  1042.64  1053.03  1064.31  1084.07  1124.31
eigval :     1198.59  1242.33  1308.84  1341.83  1391.04  1399.78
eigval :     1481.19  1492.26  1498.66  1501.73  1506.89  1547.16
eigval :     1673.95  2549.24  2903.86  2937.72  2943.01  2965.95
eigval :     2997.57  3003.60  3012.65  3015.34  3026.51  3622.12

   temp. (K)  partition function   enthalpy   heat capacity  entropy
                                   cal/mol     cal/K/mol   cal/K/mol   J/K/mol
 298.15  VIB  0.558E+04             4492.344     25.292     28.748
         ROT  0.397E+06              888.752      2.981     28.599
         INT  0.221E+10             5381.096     28.273     57.347
         TR   0.101E+28             1481.254      4.968     39.792
         TOT                        6862.3501    33.2414    97.1393   406.4307

       T/K    H(0)-H(T)+PV         H(T)/Eh          T*S/Eh         G(T)/Eh
   ------------------------------------------------------------------------
    298.15    0.109359E-01    0.158578E+00    0.461540E-01    0.112424E+00
   ------------------------------------------------------------------------

         :::::::::::::::::::::::::::::::::::::::::::::::::::::
         ::                  THERMODYNAMIC                  ::
         :::::::::::::::::::::::::::::::::::::::::::::::::::::
         :: total free energy         -24.606476282474 Eh   ::
         ::.................................................::
         :: total energy              -24.718899891919 Eh   ::
         :: zero point energy           0.147641761407 Eh   ::
         :: G(RRHO) w/o ZPVE           -0.035218151962 Eh   ::
         :: G(RRHO) contrib.            0.112423609445 Eh   ::
         :::::::::::::::::::::::::::::::::::::::::::::::::::::

           -------------------------------------------------
          | TOTAL ENERGY              -24.718899891919 Eh   |
          | TOTAL ENTHALPY            -24.560322279601 Eh   |
          | TOTAL FREE ENERGY         -24.606476282474 Eh   |
          | GRADIENT NORM               0.000860873318 Eh/α |
          | HOMO-LUMO GAP               4.638248424192 eV   |
           -------------------------------------------------

 * finished run on 2025/10/18 at 04:15:10.416
normal termination of xtb
