   * xtb version 6.7.1 (edcfbbe) compiled by 'albert@albert-system' on 2024-07-22

   ID    Z sym.   atoms
    1    6 C      1, 2, 6, 9, 11
    2    1 H      3-5, 7, 8, 10, 13-15, 17, 18
    3    8 O      12, 16

          program call               : xtb tb_lite_results_shiftn0p15_gp719_b0_rot0_complex.xyz --ohess --chrg -1 --alpb water
      * Solvation model:               ALPB
        Solvent                        water
        Solvent mass                       1.8000E+01 g/mol
          :  Hamiltonian                  GFN2-xTB          :
 * total energy  :   -24.7120097 Eh     change       -0.4440714E-09 Eh
 * total energy  :   -24.7152040 Eh     change       -0.3194225E-02 Eh
 * total energy  :   -24.7157311 Eh     change       -0.5271794E-03 Eh
 * total energy  :   -24.7159577 Eh     change       -0.2265847E-03 Eh
 * total energy  :   -24.7162354 Eh     change       -0.2776866E-03 Eh
 * total energy  :   -24.7164373 Eh     change       -0.2019346E-03 Eh
 * total energy  :   -24.7165927 Eh     change       -0.1553165E-03 Eh
 * total energy  :   -24.7167329 Eh     change       -0.1402506E-03 Eh
 * total energy  :   -24.7168374 Eh     change       -0.1045000E-03 Eh
 * total energy  :   -24.7170505 Eh     change       -0.2130493E-03 Eh
 * total energy  :   -24.7188650 Eh     change       -0.7140352E-05 Eh
 * total energy  :   -24.7188736 Eh     change       -0.8667039E-05 Eh
 * total energy  :   -24.7188809 Eh     change       -0.7215827E-05 Eh
 * total energy  :   -24.7188877 Eh     change       -0.6809888E-05 Eh
 * total energy  :   -24.7188982 Eh     change       -0.1056990E-04 Eh
 * total energy  :   -24.7189046 Eh     change       -0.6397512E-05 Eh
 * total energy  :   -24.7189152 Eh     change       -0.1061623E-04 Eh
 * total energy  :   -24.7189199 Eh     change       -0.4632923E-05 Eh
 * total energy  :   -24.7189231 Eh     change       -0.3194811E-05 Eh
   *** GEOMETRY OPTIMIZATION CONVERGED AFTER 41 ITERATIONS ***

 final structure:
================
18
 xtb: 6.7.1 (edcfbbe)
C           -4.91126670656896       -2.75432582979889        2.24659299219512
C           -6.06995181620914       -3.22540262765608        3.07224401170514
H           -4.75025084404172       -1.67760692470600        2.35440238634114
H           -3.98365468015068       -3.26392844974660        2.52436393734672
H           -5.12761749627932       -2.97258082643094        1.20127972848621
C           -7.15591108167593       -3.84213877690551        2.56099967537761
H           -6.01163508360159       -3.05802966306937        4.14115084276475
H           -8.26112640316151       -3.63504824176281        4.39979712487072
C           -8.24490634629936       -4.30047952201728        3.53330427694527
H           -9.21130694305247       -4.24323720559435        3.02643212804240
C           -7.99731094626582       -5.73775598918408        3.98352790006167
O           -7.33196515081082       -4.09845948650458        1.29038690664429
H           -7.03452787371981       -5.80849648825614        4.48552039527512
H           -8.78177036230041       -6.07107553305156        4.66011981355164
H           -7.98249918098330       -6.39044761439066        3.11306452131309
O           -9.60678272722300       -5.04887124713364        0.49787922572502
H           -8.72241549290537       -4.69165194081240        0.84240934477235
H           -9.58521426849724       -4.86097776817871       -0.44576709982824

          :  Hamiltonian                  GFN2-xTB          :
         :: gradient norm              0.000945337709 Eh/a0 ::
         :: HOMO-LUMO gap              4.635843298874 eV    ::
         :: SCC energy               -25.001673410468 Eh    ::
         :: -> dispersion             -0.011165410394 Eh    ::
         :: -> Gsolv                  -0.105361539800 Eh    ::
         :: repulsion energy           0.282750337397 Eh    ::

    * Orbital Energies and Occupations

         #    Occupation            Energy/Eh            Energy/eV
      -------------------------------------------------------------
         1        2.0000           -0.6417809             -17.4637
       ...           ...                  ...                  ...
        10        2.0000           -0.4841021             -13.1731
        11        2.0000           -0.4731469             -12.8750
        12        2.0000           -0.4670207             -12.7083
        13        2.0000           -0.4602026             -12.5228
        14        2.0000           -0.4496218             -12.2348
        15        2.0000           -0.4438948             -12.0790
        16        2.0000           -0.4259024             -11.5894
        17        2.0000           -0.4128008             -11.2329
        18        2.0000           -0.4081166             -11.1054
        19        2.0000           -0.4059429             -11.0463
        20        2.0000           -0.4040526             -10.9948
        21        2.0000           -0.3287648              -8.9461
        22        2.0000           -0.2976290              -8.0989 (HOMO)
        23                         -0.1272648              -3.4631 (LUMO)
        24                          0.1103625               3.0031
        25                          0.1178766               3.2076
        26                          0.1535363               4.1779
        27                          0.1610065               4.3812
        28                          0.1787860               4.8650
        29                          0.1876566               5.1064
        30                          0.1924635               5.2372
        31                          0.2030959               5.5265
        32                          0.2324479               6.3252
        33                          0.2362894               6.4298
       ...                                ...                  ...
        39                          0.6409729              17.4418
      -------------------------------------------------------------
                  HL-Gap            0.1703642 Eh            4.6358 eV

     #   Z          covCN         q      C6AA      α(0)
     1   6 C        3.753    -0.075    21.986     6.686
     2   6 C        2.890    -0.159    32.106     9.290
     3   1 H        0.924     0.006     2.962     2.691
     4   1 H        0.924     0.005     2.968     2.694
     5   1 H        0.925     0.011     2.874     2.651
     6   6 C        2.816     0.134    25.053     8.201
     7   1 H        0.925    -0.045     3.963     3.113
     8   1 H        0.924     0.003     3.008     2.712
     9   6 C        3.805    -0.070    21.831     6.652
    10   1 H        0.924     0.019     2.752     2.594
    11   6 C        3.752    -0.092    22.316     6.737
    12   8 O        0.860    -0.733    29.630     7.298
    13   1 H        0.925     0.027     2.635     2.539
    14   1 H        0.925     0.035     2.514     2.479
    15   1 H        0.925     0.026     2.638     2.540
    16   8 O        1.601    -0.723    28.326     7.183
    17   1 H        0.799     0.300     0.723     1.336
    18   1 H        0.805     0.330     0.638     1.255

Wiberg/Mayer (AO) data.
largest (>0.10) Wiberg bond orders for each atom

     #   Z sym  total        # sym  WBO       # sym  WBO       # sym  WBO
 ---------------------------------------------------------------------------
     1   6 C    3.997 --     2 C    1.027     5 H    0.987     3 H    0.980
                             4 H    0.979
     2   6 C    3.906 --     6 C    1.677     1 C    1.027     7 H    0.970
                            12 O    0.192
     3   1 H    1.000 --     1 C    0.980
     4   1 H    1.000 --     1 C    0.979
     5   1 H    1.000 --     1 C    0.987
     6   6 C    3.963 --     2 C    1.677    12 O    1.265     9 C    0.967
     7   1 H    0.998 --     2 C    0.970
     8   1 H    1.000 --     9 C    0.979
     9   6 C    3.994 --    11 C    1.010     8 H    0.979    10 H    0.976
                             6 C    0.967
    10   1 H    1.000 --     9 C    0.976
    11   6 C    3.998 --     9 C    1.010    15 H    0.989    13 H    0.989
                            14 H    0.987
    12   8 O    1.702 --     6 C    1.265     2 C    0.192    17 H    0.118
    13   1 H    0.999 --    11 C    0.989
    14   1 H    0.998 --    11 C    0.987
    15   1 H    0.999 --    11 C    0.989
    16   8 O    1.737 --    18 H    0.890    17 H    0.786
    17   1 H    0.910 --    16 O    0.786    12 O    0.118
    18   1 H    0.891 --    16 O    0.890
 ---------------------------------------------------------------------------

molecular dipole:
                 x           y           z       tot (Debye)
 q only:       14.141       7.793      -3.465
   full:       14.303       7.907      -3.418      42.438

 projected vibrational frequencies (cm⁻¹)
eigval :       -0.00    -0.00     0.00     0.00     0.00     0.00
eigval :       24.43    43.17    92.96   145.06   162.35   170.83
eigval :      185.85   208.06   289.76   321.50   425.45   559.85
eigval :      597.25   634.31   697.70   820.64   844.75   928.87
eigval :      998.91  1044.00  1053.12  1064.88  1084.02  1124.78
eigval :     1198.67  1242.03  1308.74  1342.01  1390.99  1400.08
eigval :     1481.89  1492.13  1499.41  1501.22  1506.64  1556.35
eigval :     1673.72  2511.46  2898.94  2931.24  2943.07  2969.18
eigval :     2996.62  3004.05  3007.39  3017.17  3027.60  3614.46

   temp. (K)  partition function   enthalpy   heat capacity  entropy
                                   cal/mol     cal/K/mol   cal/K/mol   J/K/mol
 298.15  VIB  0.606E+04             4815.986     27.204     30.613
         ROT  0.395E+06              888.752      2.981     28.591
         INT  0.239E+10             5704.738     30.184     59.204
         TR   0.101E+28             1481.254      4.968     39.792
         TOT                        7185.9920    35.1526    98.9958   414.1986

       T/K    H(0)-H(T)+PV         H(T)/Eh          T*S/Eh         G(T)/Eh
   ------------------------------------------------------------------------
    298.15    0.114516E-01    0.159618E+00    0.470361E-01    0.112582E+00
   ------------------------------------------------------------------------

         :::::::::::::::::::::::::::::::::::::::::::::::::::::
         ::                  THERMODYNAMIC                  ::
         :::::::::::::::::::::::::::::::::::::::::::::::::::::
         :: total free energy         -24.606341154319 Eh   ::
         ::.................................................::
         :: total energy              -24.718923072866 Eh   ::
         :: zero point energy           0.148166429149 Eh   ::
         :: G(RRHO) w/o ZPVE           -0.035584510601 Eh   ::
         :: G(RRHO) contrib.            0.112581918548 Eh   ::
         :::::::::::::::::::::::::::::::::::::::::::::::::::::

           -------------------------------------------------
          | TOTAL ENERGY              -24.718923072866 Eh   |
          | TOTAL ENTHALPY            -24.559305036595 Eh   |
          | TOTAL FREE ENERGY         -24.606341154319 Eh   |
          | GRADIENT NORM               0.000945478120 Eh/α |
          | HOMO-LUMO GAP               4.635846727399 eV   |
           -------------------------------------------------

 * finished run on 2025/10/18 at 04:15:15.682
normal termination of xtb
