   * xtb version 6.7.1 (edcfbbe) compiled by 'albert@albert-system' on 2024-07-22

   ID    Z sym.   atoms
    1    6 C      1, 2, 6, 9, 11
    2    1 H      3-5, 7, 8, 10, 13-15, 17, 18
    3    8 O      12, 16

          program call               : xtb tb_lite_results_shiftn0p25_gp719_b0_rot270_complex.xyz --ohess --chrg -1 --alpb water
      * Solvation model:               ALPB
        Solvent                        water
        Solvent mass                       1.8000E+01 g/mol
          :  Hamiltonian                  GFN2-xTB          :
 * total energy  :   -24.7121345 Eh     change       -0.1985470E-09 Eh
 * total energy  :   -24.7161804 Eh     change       -0.4045936E-02 Eh
 * total energy  :   -24.7166455 Eh     change       -0.4650655E-03 Eh
 * total energy  :   -24.7167505 Eh     change       -0.1049669E-03 Eh
 * total energy  :   -24.7169695 Eh     change       -0.2190624E-03 Eh
 * total energy  :   -24.7171646 Eh     change       -0.1950192E-03 Eh
 * total energy  :   -24.7173360 Eh     change       -0.1714840E-03 Eh
 * total energy  :   -24.7175207 Eh     change       -0.1846305E-03 Eh
 * total energy  :   -24.7176044 Eh     change       -0.8370324E-04 Eh
 * total energy  :   -24.7177881 Eh     change       -0.1837492E-03 Eh
 * total energy  :   -24.7188762 Eh     change       -0.1773040E-04 Eh
 * total energy  :   -24.7188863 Eh     change       -0.1006130E-04 Eh
 * total energy  :   -24.7189021 Eh     change       -0.1579644E-04 Eh
 * total energy  :   -24.7189134 Eh     change       -0.1133098E-04 Eh
 * total energy  :   -24.7189216 Eh     change       -0.8247641E-05 Eh
 * total energy  :   -24.7189309 Eh     change       -0.9252547E-05 Eh
 * total energy  :   -24.7189415 Eh     change       -0.1056468E-04 Eh
 * total energy  :   -24.7189471 Eh     change       -0.5613986E-05 Eh
 * total energy  :   -24.7189483 Eh     change       -0.1198693E-05 Eh
   *** GEOMETRY OPTIMIZATION CONVERGED AFTER 34 ITERATIONS ***

 final structure:
================
18
 xtb: 6.7.1 (edcfbbe)
C           -4.87437579073031       -2.73745870546861        2.29555263985634
C           -6.07057051951574       -3.19926961971171        3.07143749791428
H           -4.77571907887487       -1.64844959267735        2.31622073578906
H           -3.94796862936084       -3.16708709823768        2.68741880722718
H           -4.99649274503760       -3.05721284711306        1.26153932028474
C           -7.09291320734657       -3.89430830412108        2.53090108872402
H           -6.09694412223736       -2.95232581781086        4.12574861799165
H           -8.30591153390335       -3.63793194984413        4.29434124273132
C           -8.23597296937775       -4.32840141223069        3.45047353765496
H           -9.17042137391927       -4.29004886134306        2.88471017532714
C           -8.01124934859330       -5.75116918439997        3.95572680865957
O           -7.16233747188929       -4.25080255271143        1.27440599885976
H           -7.08263580701573       -5.80177954882998        4.52081367298803
H           -8.83622196148024       -6.07171813930414        4.58884074393511
H           -7.93577904062565       -6.42669172885701        3.10601009301850
O           -9.42159819218412       -5.10331232821590        0.33509182814888
H           -8.55229454814346       -4.76906404678051        0.73382220031228
H           -9.21846778253996       -5.24304533200277       -0.59490983228960

          :  Hamiltonian                  GFN2-xTB          :
         :: gradient norm              0.000294735240 Eh/a0 ::
         :: HOMO-LUMO gap              4.640222120457 eV    ::
         :: SCC energy               -25.002080554068 Eh    ::
         :: -> dispersion             -0.011148319190 Eh    ::
         :: -> Gsolv                  -0.105456660990 Eh    ::
         :: repulsion energy           0.283132284463 Eh    ::

    * Orbital Energies and Occupations

         #    Occupation            Energy/Eh            Energy/eV
      -------------------------------------------------------------
         1        2.0000           -0.6420308             -17.4705
       ...           ...                  ...                  ...
        10        2.0000           -0.4842643             -13.1775
        11        2.0000           -0.4735648             -12.8864
        12        2.0000           -0.4666793             -12.6990
        13        2.0000           -0.4601101             -12.5202
        14        2.0000           -0.4497447             -12.2382
        15        2.0000           -0.4438288             -12.0772
        16        2.0000           -0.4257431             -11.5851
        17        2.0000           -0.4127484             -11.2315
        18        2.0000           -0.4079456             -11.1008
        19        2.0000           -0.4060072             -11.0480
        20        2.0000           -0.4041788             -10.9983
        21        2.0000           -0.3284547              -8.9377
        22        2.0000           -0.2976259              -8.0988 (HOMO)
        23                         -0.1271009              -3.4586 (LUMO)
        24                          0.1105008               3.0069
        25                          0.1178619               3.2072
        26                          0.1536729               4.1817
        27                          0.1609542               4.3798
        28                          0.1795098               4.8847
        29                          0.1872067               5.0942
        30                          0.1927746               5.2457
        31                          0.2041585               5.5554
        32                          0.2328643               6.3366
        33                          0.2360936               6.4244
       ...                                ...                  ...
        39                          0.6419935              17.4695
      -------------------------------------------------------------
                  HL-Gap            0.1705249 Eh            4.6402 eV

     #   Z          covCN         q      C6AA      α(0)
     1   6 C        3.753    -0.075    21.988     6.687
     2   6 C        2.890    -0.159    32.106     9.290
     3   1 H        0.924     0.005     2.967     2.694
     4   1 H        0.924     0.006     2.961     2.691
     5   1 H        0.925     0.011     2.871     2.650
     6   6 C        2.816     0.134    25.053     8.201
     7   1 H        0.925    -0.045     3.970     3.116
     8   1 H        0.924     0.002     3.017     2.716
     9   6 C        3.804    -0.070    21.827     6.651
    10   1 H        0.924     0.018     2.757     2.596
    11   6 C        3.752    -0.091    22.306     6.735
    12   8 O        0.860    -0.734    29.645     7.300
    13   1 H        0.925     0.026     2.640     2.541
    14   1 H        0.925     0.035     2.517     2.481
    15   1 H        0.925     0.027     2.632     2.537
    16   8 O        1.601    -0.722    28.315     7.181
    17   1 H        0.799     0.300     0.723     1.336
    18   1 H        0.805     0.330     0.637     1.253

Wiberg/Mayer (AO) data.
largest (>0.10) Wiberg bond orders for each atom

     #   Z sym  total        # sym  WBO       # sym  WBO       # sym  WBO
 ---------------------------------------------------------------------------
     1   6 C    3.997 --     2 C    1.027     5 H    0.987     3 H    0.979
                             4 H    0.979
     2   6 C    3.906 --     6 C    1.677     1 C    1.027     7 H    0.970
                            12 O    0.191
     3   1 H    1.000 --     1 C    0.979
     4   1 H    1.000 --     1 C    0.979
     5   1 H    1.000 --     1 C    0.987
     6   6 C    3.963 --     2 C    1.677    12 O    1.265     9 C    0.968
     7   1 H    0.998 --     2 C    0.970
     8   1 H    1.000 --     9 C    0.979
     9   6 C    3.994 --    11 C    1.010     8 H    0.979    10 H    0.975
                             6 C    0.968
    10   1 H    1.000 --     9 C    0.975
    11   6 C    3.998 --     9 C    1.010    13 H    0.989    15 H    0.989
                            14 H    0.987
    12   8 O    1.700 --     6 C    1.265     2 C    0.191    17 H    0.117
    13   1 H    0.999 --    11 C    0.989
    14   1 H    0.998 --    11 C    0.987
    15   1 H    0.999 --    11 C    0.989
    16   8 O    1.737 --    18 H    0.890    17 H    0.787
    17   1 H    0.910 --    16 O    0.787    12 O    0.117
    18   1 H    0.891 --    16 O    0.890
 ---------------------------------------------------------------------------

molecular dipole:
                 x           y           z       tot (Debye)
 q only:       13.996       7.761      -3.386
   full:       14.172       7.833      -3.329      42.018

 projected vibrational frequencies (cm⁻¹)
eigval :       -0.00    -0.00    -0.00    -0.00     0.00     0.00
eigval :        9.91    38.73    87.23   110.76   137.13   162.39
eigval :      186.72   206.25   288.33   319.49   424.44   557.00
eigval :      597.57   631.57   696.40   820.55   844.54   899.17
eigval :      999.10  1042.93  1052.60  1064.73  1083.79  1124.48
eigval :     1198.67  1242.19  1309.33  1341.42  1390.34  1399.78
eigval :     1481.96  1491.69  1498.88  1501.17  1506.72  1553.76
eigval :     1674.45  2524.39  2902.95  2935.34  2943.72  2966.38
eigval :     2999.74  3004.34  3010.86  3015.76  3026.80  3616.26

   temp. (K)  partition function   enthalpy   heat capacity  entropy
                                   cal/mol     cal/K/mol   cal/K/mol   J/K/mol
 298.15  VIB  0.239E+05             4934.753     27.147     32.486
         ROT  0.397E+06              888.752      2.981     28.599
         INT  0.948E+10             5823.506     30.128     61.086
         TR   0.101E+28             1481.254      4.968     39.792
         TOT                        7304.7596    35.0962   100.8777   422.0724

       T/K    H(0)-H(T)+PV         H(T)/Eh          T*S/Eh         G(T)/Eh
   ------------------------------------------------------------------------
    298.15    0.116409E-01    0.159546E+00    0.479303E-01    0.111615E+00
   ------------------------------------------------------------------------

         :::::::::::::::::::::::::::::::::::::::::::::::::::::
         ::                  THERMODYNAMIC                  ::
         :::::::::::::::::::::::::::::::::::::::::::::::::::::
         :: total free energy         -24.607332859631 Eh   ::
         ::.................................................::
         :: total energy              -24.718948268209 Eh   ::
         :: zero point energy           0.147904791129 Eh   ::
         :: G(RRHO) w/o ZPVE           -0.036289382552 Eh   ::
         :: G(RRHO) contrib.            0.111615408578 Eh   ::
         :::::::::::::::::::::::::::::::::::::::::::::::::::::

           -------------------------------------------------
          | TOTAL ENERGY              -24.718948268209 Eh   |
          | TOTAL ENTHALPY            -24.559402601748 Eh   |
          | TOTAL FREE ENERGY         -24.607332859631 Eh   |
          | GRADIENT NORM               0.000294714317 Eh/α |
          | HOMO-LUMO GAP               4.640219461569 eV   |
           -------------------------------------------------

 * finished run on 2025/10/18 at 04:15:18.017
normal termination of xtb
