                         Program Version 5.0.4 -  RELEASE  -
|  1> !OPT PBE D3BJ CPCM(water)
|  2>
|  3> *xyz -1 1
|  4> C     -5.801626   -3.942222    1.254807
|  5> C     -6.671146   -5.214846    1.061488
|  6> O     -6.401312   -3.191718    2.175912
|  7> H     -4.784742   -4.314745    1.451288
|  8> H     -5.692994   -3.515869    0.244442
|  9> H     -6.674306   -5.843958    1.959816
| 10> O     -8.017258   -4.820265    0.785148
| 11> H     -6.304031   -5.813876    0.221927
| 12> H     -8.032090   -3.976831    1.300754
| 13> *
| 14>
| 15>                          ****END OF INPUT****
 Total Charge           Charge          ....   -1
 Multiplicity           Mult            ....    1
 Number of Electrons    NEL             ....   34
Dispersion correction           -0.004960765
FINAL SINGLE POINT ENERGY      -229.301348511591
Dispersion correction            ... done
Dispersion correction           -0.004959233
FINAL SINGLE POINT ENERGY      -229.308649492092
Dispersion correction            ... done
Dispersion correction           -0.004969676
FINAL SINGLE POINT ENERGY      -229.310474594961
Dispersion correction            ... done
FINAL SINGLE POINT ENERGY      -229.311455201306
FINAL SINGLE POINT ENERGY      -229.312005331347
FINAL SINGLE POINT ENERGY      -229.312157129648
FINAL SINGLE POINT ENERGY      -229.312358845692
FINAL SINGLE POINT ENERGY      -229.312384415057
Dispersion correction            ... done
Dispersion correction           -0.004949533
FINAL SINGLE POINT ENERGY      -229.312395329296
Dispersion correction            ... done
Dispersion correction           -0.004949248
FINAL SINGLE POINT ENERGY      -229.312397051992
Dispersion correction            ... done
                    ***********************HURRAY********************

CARTESIAN COORDINATES (ANGSTROEM)
---------------------------------
  C     -5.855582   -3.955113    1.230332
  C     -6.716144   -5.269294    1.003937
  O     -6.644375   -3.069896    1.899157
  H     -4.890448   -4.246380    1.751527
  H     -5.507533   -3.601210    0.197040
  H     -6.508559   -6.003178    1.836941
  O     -8.042026   -4.819184    1.006025
  H     -6.437170   -5.791089    0.053142
  H     -7.777667   -3.878987    1.477481

 Multiplicity           Mult            ....    1
 Number of Electrons    NEL             ....   34
 Basis Dimension        Dim             ....   81

ORBITAL ENERGIES
----------------

  NO   OCC          E(Eh)            E(eV)
   0   2.0000     -18.681477      -508.3488
   1   2.0000     -18.635761      -507.1048
   2   2.0000      -9.894374      -269.2396
   3   2.0000      -9.889803      -269.1152
   4   2.0000      -0.864676       -23.5290
   5   2.0000      -0.782247       -21.2860
   6   2.0000      -0.572977       -15.5915
   7   2.0000      -0.463553       -12.6139
   8   2.0000      -0.388156       -10.5623
   9   2.0000      -0.369395       -10.0518
  10   2.0000      -0.339843        -9.2476
  11   2.0000      -0.293734        -7.9929
  12   2.0000      -0.274349        -7.4654
  13   2.0000      -0.218682        -5.9506
  14   2.0000      -0.169370        -4.6088
  15   2.0000      -0.147036        -4.0011
  16   2.0000      -0.121570        -3.3081
  17   0.0000       0.067711         1.8425
  18   0.0000       0.101576         2.7640
  19   0.0000       0.115398         3.1401
  20   0.0000       0.130589         3.5535
  21   0.0000       0.168676         4.5899

MULLIKEN ATOMIC CHARGES
-----------------------
   0 C :    0.111518
   1 C :    0.091686
   2 O :   -0.615338
   3 H :   -0.072813
   4 H :   -0.098837
   5 H :   -0.054284
   6 O :   -0.449145
   7 H :   -0.037052
   8 H :    0.124266
Sum of atomic charges:   -1.0000000

LOEWDIN ATOMIC CHARGES
----------------------
   0 C :   -0.035683
   1 C :   -0.016118
   2 O :   -0.510847
   3 H :   -0.040211
   4 H :   -0.056657
   5 H :   -0.029925
   6 O :   -0.293446
   7 H :   -0.017724
   8 H :    0.000611

  Mayer bond orders larger than 0.100000
B(  0-C ,  1-C ) :   1.0096 B(  0-C ,  2-O ) :   1.2996 B(  0-C ,  3-H ) :   0.9121
B(  0-C ,  4-H ) :   0.8775 B(  1-C ,  5-H ) :   0.9124 B(  1-C ,  6-O ) :   1.1397
B(  1-C ,  7-H ) :   0.9358 B(  2-O ,  8-H ) :   0.3878 B(  6-O ,  8-H ) :   0.7421

Dispersion correction           -0.004949485
FINAL SINGLE POINT ENERGY      -229.312397905241

DIPOLE MOMENT
-------------
                                X             Y             Z
Electronic contribution:     -2.33605       1.14531       0.68182
Nuclear contribution   :      2.84919      -2.02743      -1.05177
                        -----------------------------------------
Total Dipole Moment    :      0.51313      -0.88212      -0.36996
                        -----------------------------------------
Magnitude (a.u.)       :      1.08550
Magnitude (Debye)      :      2.75913

Rotational constants in cm-1:     0.484240     0.239885     0.174301
Rotational constants in MHz : 14517.141901  7191.567335  5225.398009

                             ****ORCA TERMINATED NORMALLY****
TOTAL RUN TIME: 0 days 0 hours 2 minutes 10 seconds 67 msec
