   * xtb version 6.7.1 (edcfbbe) compiled by 'albert@albert-system' on 2024-07-22

   ID    Z sym.   atoms
    1    6 C      1, 2, 9
    2    1 H      3-5, 7, 8, 10, 11, 13, 14
    3   16 S      6
    4    8 O      12

          program call               : xtb tb_lite_results_shiftn0p05_gp404_b0_rot90_complex.xyz --ohess --chrg -1 --alpb water
      * Solvation model:               ALPB
        Solvent                        water
        Solvent mass                       1.8000E+01 g/mol
          :  Hamiltonian                  GFN2-xTB          :
 * total energy  :   -18.5643698 Eh     change       -0.1185896E-10 Eh
 * total energy  :   -18.5652911 Eh     change       -0.9212993E-03 Eh
 * total energy  :   -18.5656169 Eh     change       -0.3258232E-03 Eh
 * total energy  :   -18.5657061 Eh     change       -0.8919387E-04 Eh
 * total energy  :   -18.5658177 Eh     change       -0.1116006E-03 Eh
 * total energy  :   -18.5658896 Eh     change       -0.7182064E-04 Eh
 * total energy  :   -18.5659442 Eh     change       -0.5468785E-04 Eh
 * total energy  :   -18.5660213 Eh     change       -0.7705454E-04 Eh
 * total energy  :   -18.5660809 Eh     change       -0.5962896E-04 Eh
 * total energy  :   -18.5661206 Eh     change       -0.3966969E-04 Eh
 * total energy  :   -18.5665463 Eh     change       -0.2033960E-04 Eh
 * total energy  :   -18.5665659 Eh     change       -0.1965792E-04 Eh
 * total energy  :   -18.5665799 Eh     change       -0.1394690E-04 Eh
 * total energy  :   -18.5665903 Eh     change       -0.1046844E-04 Eh
 * total energy  :   -18.5665965 Eh     change       -0.6177277E-05 Eh
 * total energy  :   -18.5666041 Eh     change       -0.7627216E-05 Eh
 * total energy  :   -18.5666095 Eh     change       -0.5343766E-05 Eh
 * total energy  :   -18.5666155 Eh     change       -0.5999861E-05 Eh
 * total energy  :   -18.5666193 Eh     change       -0.3829304E-05 Eh
   *** GEOMETRY OPTIMIZATION CONVERGED AFTER 31 ITERATIONS ***

 final structure:
================
14
 xtb: 6.7.1 (edcfbbe)
C           -3.84088158566010        1.94501763940662        0.39915375003364
C           -0.07044493896183        1.28066259013650       -0.44738176435555
H           -1.15896884815870        1.33804961998089       -0.40870676934436
H           -3.24511969404543        2.13231196481173        1.27851028866967
H           -4.02857501000648        2.80175787339732       -0.22850467802735
S            0.64437800802583        2.68076814099565        0.44531907212237
H            0.26345381396330        0.34939288282406        0.01388438388269
H            0.26198825429254        1.31167699440981       -1.48705246176697
C           -4.28987396634101        0.74526875180086        0.09289906952864
H           -4.08834116281548       -0.10947296292926        0.71734993317725
H           -4.87310708104499        0.56340592968670       -0.79509079538249
O           -1.41584233740080        2.75991840775095        2.76496003160306
H           -0.74743511114833        2.74351841579271        2.04236407840290
H           -1.04531207011706        3.34512556016906        3.43493260339986

          :  Hamiltonian                  GFN2-xTB          :
         :: gradient norm              0.000630153377 Eh/a0 ::
         :: HOMO-LUMO gap              2.485643093376 eV    ::
         :: SCC energy               -18.781798019639 Eh    ::
         :: -> dispersion             -0.006780351172 Eh    ::
         :: -> Gsolv                  -0.102879675692 Eh    ::
         :: repulsion energy           0.215178708516 Eh    ::

    * Orbital Energies and Occupations

         #    Occupation            Energy/Eh            Energy/eV
      -------------------------------------------------------------
         1        2.0000           -0.6556534             -17.8412
       ...           ...                  ...                  ...
         5        2.0000           -0.5448256             -14.8255
         6        2.0000           -0.5330178             -14.5042
         7        2.0000           -0.5011937             -13.6382
         8        2.0000           -0.4877428             -13.2722
         9        2.0000           -0.4786163             -13.0238
        10        2.0000           -0.4773951             -12.9906
        11        2.0000           -0.4652770             -12.6608
        12        2.0000           -0.4261895             -11.5972
        13        2.0000           -0.4215868             -11.4720
        14        2.0000           -0.4193897             -11.4122
        15        2.0000           -0.4099115             -11.1543
        16        2.0000           -0.2980891              -8.1114
        17        2.0000           -0.2934418              -7.9850 (HOMO)
        18                         -0.2020961              -5.4993 (LUMO)
        19                         -0.1313907              -3.5753
        20                          0.0198863               0.5411
        21                          0.0388766               1.0579
        22                          0.0446177               1.2141
        23                          0.0559291               1.5219
        24                          0.1334438               3.6312
        25                          0.1508215               4.1041
        26                          0.1573489               4.2817
        27                          0.1759694               4.7884
        28                          0.2136099               5.8126
       ...                                ...                  ...
        34                          0.6091098              16.5747
      -------------------------------------------------------------
                  HL-Gap            0.0913457 Eh            2.4856 eV

     #   Z          covCN         q      C6AA      α(0)
     1   6 C        2.832    -0.076    29.881     8.958
     2   6 C        3.743     0.037    20.021     6.383
     3   1 H        0.925    -0.012     3.280     2.832
     4   1 H        0.926     0.042     2.420     2.433
     5   1 H        0.926     0.036     2.500     2.473
     6  16 S        0.993    -0.933   184.493    22.973
     7   1 H        0.924    -0.020     3.426     2.895
     8   1 H        0.924    -0.022     3.479     2.917
     9   6 C        2.832    -0.089    30.212     9.007
    10   1 H        0.926     0.039     2.465     2.455
    11   1 H        0.926     0.047     2.361     2.403
    12   8 O        1.607    -0.676    27.069     7.022
    13   1 H        0.825     0.277     0.789     1.394
    14   1 H        0.805     0.350     0.589     1.206

Wiberg/Mayer (AO) data.
largest (>0.10) Wiberg bond orders for each atom

     #   Z sym  total        # sym  WBO       # sym  WBO       # sym  WBO
 ---------------------------------------------------------------------------
     1   6 C    3.992 --     9 C    2.034     5 H    0.977     4 H    0.974
     2   6 C    3.994 --     6 S    1.024     7 H    0.990     8 H    0.989
                             3 H    0.987
     3   1 H    1.000 --     2 C    0.987
     4   1 H    0.998 --     1 C    0.974
     5   1 H    0.999 --     1 C    0.977
     6  16 S    1.148 --     2 C    1.024
     7   1 H    1.000 --     2 C    0.990
     8   1 H    0.999 --     2 C    0.989
     9   6 C    3.992 --     1 C    2.034    10 H    0.977    11 H    0.976
    10   1 H    0.998 --     9 C    0.977
    11   1 H    0.998 --     9 C    0.976
    12   8 O    1.775 --    14 H    0.876    13 H    0.861
    13   1 H    0.923 --    12 O    0.861
    14   1 H    0.878 --    12 O    0.876
 ---------------------------------------------------------------------------

molecular dipole:
                 x           y           z       tot (Debye)
 q only:       -0.406      -4.614      -0.939
   full:       -0.381      -4.984      -1.327      13.146

 projected vibrational frequencies (cm⁻¹)
eigval :       -0.00    -0.00     0.00     0.00     0.00     0.00
eigval :      -20.68     1.26    34.25    51.11    63.22    74.31
eigval :       77.95    80.98   131.99   190.39   418.60   603.92
eigval :      731.21   845.72   874.41   945.99   948.53  1025.70
eigval :     1044.07  1180.80  1322.31  1392.21  1413.94  1484.54
eigval :     1485.92  1516.05  1701.32  2924.47  2939.26  2959.66
eigval :     3038.59  3087.38  3092.45  3102.94  3122.56  3593.79

   temp. (K)  partition function   enthalpy   heat capacity  entropy
                                   cal/mol     cal/K/mol   cal/K/mol   J/K/mol
 298.15  VIB  0.295E+07             4973.706     21.313     38.699
         ROT  0.428E+06              888.752      2.981     28.750
         INT  0.126E+13             5862.458     24.294     67.449
         TR   0.870E+27             1481.254      4.968     39.489
         TOT                        7343.7122    29.2621   106.9382   447.4295

       T/K    H(0)-H(T)+PV         H(T)/Eh          T*S/Eh         G(T)/Eh
   ------------------------------------------------------------------------
    298.15    0.117030E-01    0.119920E+00    0.508098E-01    0.691102E-01
   ------------------------------------------------------------------------

         :::::::::::::::::::::::::::::::::::::::::::::::::::::
         ::                  THERMODYNAMIC                  ::
         :::::::::::::::::::::::::::::::::::::::::::::::::::::
         :: total free energy         -18.497509109145 Eh   ::
         ::.................................................::
         :: total energy              -18.566619312478 Eh   ::
         :: zero point energy           0.108217055771 Eh   ::
         :: G(RRHO) w/o ZPVE           -0.039106852439 Eh   ::
         :: G(RRHO) contrib.            0.069110203333 Eh   ::
         :::::::::::::::::::::::::::::::::::::::::::::::::::::

           -------------------------------------------------
          | TOTAL ENERGY              -18.566619312478 Eh   |
          | TOTAL ENTHALPY            -18.446699306465 Eh   |
          | TOTAL FREE ENERGY         -18.497509109145 Eh   |
          | GRADIENT NORM               0.000630061768 Eh/α |
          | HOMO-LUMO GAP               2.485643714411 eV   |
           -------------------------------------------------

 * finished run on 2025/10/18 at 18:40:06.637
normal termination of xtb
