   * xtb version 6.7.1 (edcfbbe) compiled by 'albert@albert-system' on 2024-07-22

   ID    Z sym.   atoms
    1    6 C      1, 2, 9
    2    1 H      3-5, 7, 8, 10, 11, 13, 14
    3   16 S      6
    4    8 O      12

          program call               : xtb tb_lite_results_shiftn0p1_gp404_b0_rot90_complex.xyz --ohess --chrg -1 --alpb water
      * Solvation model:               ALPB
        Solvent                        water
        Solvent mass                       1.8000E+01 g/mol
          :  Hamiltonian                  GFN2-xTB          :
 * total energy  :   -18.5640532 Eh     change       -0.2452438E-10 Eh
 * total energy  :   -18.5653378 Eh     change       -0.1284524E-02 Eh
 * total energy  :   -18.5656236 Eh     change       -0.2858042E-03 Eh
 * total energy  :   -18.5657149 Eh     change       -0.9134079E-04 Eh
 * total energy  :   -18.5658177 Eh     change       -0.1027599E-03 Eh
 * total energy  :   -18.5658863 Eh     change       -0.6861726E-04 Eh
 * total energy  :   -18.5659712 Eh     change       -0.8496758E-04 Eh
 * total energy  :   -18.5660298 Eh     change       -0.5855272E-04 Eh
 * total energy  :   -18.5660841 Eh     change       -0.5433031E-04 Eh
 * total energy  :   -18.5661338 Eh     change       -0.4964883E-04 Eh
 * total energy  :   -18.5665432 Eh     change       -0.1272705E-04 Eh
 * total energy  :   -18.5665565 Eh     change       -0.1333584E-04 Eh
 * total energy  :   -18.5665750 Eh     change       -0.1842751E-04 Eh
 * total energy  :   -18.5665898 Eh     change       -0.1477927E-04 Eh
 * total energy  :   -18.5665981 Eh     change       -0.8382262E-05 Eh
 * total energy  :   -18.5666046 Eh     change       -0.6473584E-05 Eh
 * total energy  :   -18.5666100 Eh     change       -0.5374710E-05 Eh
 * total energy  :   -18.5666174 Eh     change       -0.7374300E-05 Eh
 * total energy  :   -18.5666220 Eh     change       -0.4613933E-05 Eh
   *** GEOMETRY OPTIMIZATION CONVERGED AFTER 31 ITERATIONS ***

 final structure:
================
14
 xtb: 6.7.1 (edcfbbe)
C           -3.84270514970297        1.94665063197844        0.39742114986930
C           -0.06684043507288        1.28011865487567       -0.45916325895804
H           -1.15461771490126        1.34295089064297       -0.40783573042003
H           -3.23697114814551        2.13670395709869        1.26922266510556
H           -4.04516936912246        2.80295675426236       -0.22603438813933
S            0.66498724498580        2.67543833092174        0.42744971997374
H            0.26765870485845        0.34666736150358       -0.00274065917538
H            0.25378656483590        1.31107976463085       -1.50235986422143
C           -4.28737753449238        0.74432854878035        0.09525131382941
H           -4.07132562675926       -0.11017131139224        0.71494220275544
H           -4.88125215956668        0.56007693513523       -0.78505206757989
O           -1.40386964734220        2.76666657244942        2.73684658308582
H           -0.73467455037815        2.75124712543147        2.01474741603630
H           -1.02395555428314        3.33268759191455        3.41821782319683

          :  Hamiltonian                  GFN2-xTB          :
         :: gradient norm              0.000699585739 Eh/a0 ::
         :: HOMO-LUMO gap              2.486875696288 eV    ::
         :: SCC energy               -18.781836431936 Eh    ::
         :: -> dispersion             -0.006774490984 Eh    ::
         :: -> Gsolv                  -0.102881183535 Eh    ::
         :: repulsion energy           0.215214456449 Eh    ::

    * Orbital Energies and Occupations

         #    Occupation            Energy/Eh            Energy/eV
      -------------------------------------------------------------
         1        2.0000           -0.6556612             -17.8414
       ...           ...                  ...                  ...
         5        2.0000           -0.5448300             -14.8256
         6        2.0000           -0.5330673             -14.5055
         7        2.0000           -0.5012103             -13.6386
         8        2.0000           -0.4877728             -13.2730
         9        2.0000           -0.4785978             -13.0233
        10        2.0000           -0.4773034             -12.9881
        11        2.0000           -0.4652236             -12.6594
        12        2.0000           -0.4260376             -11.5931
        13        2.0000           -0.4215538             -11.4711
        14        2.0000           -0.4195056             -11.4153
        15        2.0000           -0.4099246             -11.1546
        16        2.0000           -0.2981253              -8.1124
        17        2.0000           -0.2934584              -7.9854 (HOMO)
        18                         -0.2020673              -5.4985 (LUMO)
        19                         -0.1314175              -3.5761
        20                          0.0196795               0.5355
        21                          0.0388673               1.0576
        22                          0.0448762               1.2211
        23                          0.0558219               1.5190
        24                          0.1330255               3.6198
        25                          0.1508918               4.1060
        26                          0.1574893               4.2855
        27                          0.1761929               4.7945
        28                          0.2138485               5.8191
       ...                                ...                  ...
        34                          0.6093136              16.5803
      -------------------------------------------------------------
                  HL-Gap            0.0913911 Eh            2.4869 eV

     #   Z          covCN         q      C6AA      α(0)
     1   6 C        2.832    -0.076    29.887     8.959
     2   6 C        3.743     0.037    20.023     6.384
     3   1 H        0.925    -0.012     3.276     2.831
     4   1 H        0.926     0.042     2.420     2.432
     5   1 H        0.926     0.036     2.496     2.471
     6  16 S        0.993    -0.933   184.491    22.973
     7   1 H        0.924    -0.020     3.425     2.894
     8   1 H        0.924    -0.022     3.478     2.917
     9   6 C        2.832    -0.089    30.212     9.007
    10   1 H        0.926     0.039     2.467     2.456
    11   1 H        0.926     0.047     2.360     2.402
    12   8 O        1.607    -0.676    27.070     7.022
    13   1 H        0.825     0.277     0.789     1.394
    14   1 H        0.805     0.349     0.589     1.206

Wiberg/Mayer (AO) data.
largest (>0.10) Wiberg bond orders for each atom

     #   Z sym  total        # sym  WBO       # sym  WBO       # sym  WBO
 ---------------------------------------------------------------------------
     1   6 C    3.992 --     9 C    2.034     5 H    0.977     4 H    0.974
     2   6 C    3.994 --     6 S    1.024     7 H    0.990     8 H    0.989
                             3 H    0.987
     3   1 H    1.000 --     2 C    0.987
     4   1 H    0.998 --     1 C    0.974
     5   1 H    0.999 --     1 C    0.977
     6  16 S    1.148 --     2 C    1.024
     7   1 H    1.000 --     2 C    0.990
     8   1 H    0.999 --     2 C    0.989
     9   6 C    3.992 --     1 C    2.034    10 H    0.977    11 H    0.976
    10   1 H    0.998 --     9 C    0.977
    11   1 H    0.998 --     9 C    0.976
    12   8 O    1.775 --    14 H    0.876    13 H    0.861
    13   1 H    0.923 --    12 O    0.861
    14   1 H    0.878 --    12 O    0.876
 ---------------------------------------------------------------------------

molecular dipole:
                 x           y           z       tot (Debye)
 q only:       -0.437      -4.617      -0.898
   full:       -0.415      -4.988      -1.282      13.134

 projected vibrational frequencies (cm⁻¹)
eigval :       -0.00    -0.00    -0.00     0.00     0.00     0.00
eigval :      -33.51   -20.97    30.82    47.95    51.78    65.64
eigval :       79.10    84.56   133.91   191.13   409.57   600.27
eigval :      731.13   845.56   874.43   946.24   948.75  1025.41
eigval :     1044.59  1180.81  1322.46  1392.33  1413.85  1484.77
eigval :     1485.91  1514.49  1701.58  2925.51  2939.65  2959.30
eigval :     3035.40  3088.53  3093.61  3104.13  3123.84  3589.29

   temp. (K)  partition function   enthalpy   heat capacity  entropy
                                   cal/mol     cal/K/mol   cal/K/mol   J/K/mol
 298.15  VIB  0.261E+05             4415.405     19.998     31.745
         ROT  0.428E+06              888.752      2.981     28.750
         INT  0.112E+11             5304.158     22.978     60.494
         TR   0.870E+27             1481.254      4.968     39.489
         TOT                        6785.4115    27.9466    99.9834   418.3306

       T/K    H(0)-H(T)+PV         H(T)/Eh          T*S/Eh         G(T)/Eh
   ------------------------------------------------------------------------
    298.15    0.108132E-01    0.118950E+00    0.475053E-01    0.714442E-01
   ------------------------------------------------------------------------

         :::::::::::::::::::::::::::::::::::::::::::::::::::::
         ::                  THERMODYNAMIC                  ::
         :::::::::::::::::::::::::::::::::::::::::::::::::::::
         :: total free energy         -18.495177797754 Eh   ::
         ::.................................................::
         :: total energy              -18.566621976986 Eh   ::
         :: zero point energy           0.108136278925 Eh   ::
         :: G(RRHO) w/o ZPVE           -0.036692099693 Eh   ::
         :: G(RRHO) contrib.            0.071444179232 Eh   ::
         :::::::::::::::::::::::::::::::::::::::::::::::::::::

           -------------------------------------------------
          | TOTAL ENERGY              -18.566621976986 Eh   |
          | TOTAL ENTHALPY            -18.447672456532 Eh   |
          | TOTAL FREE ENERGY         -18.495177797754 Eh   |
          | GRADIENT NORM               0.000699557598 Eh/α |
          | HOMO-LUMO GAP               2.486878001433 eV   |
           -------------------------------------------------

 * finished run on 2025/10/18 at 18:40:04.050
normal termination of xtb
