   * xtb version 6.7.1 (edcfbbe) compiled by 'albert@albert-system' on 2024-07-22

   ID    Z sym.   atoms
    1    6 C      1, 2, 9
    2    1 H      3-5, 7, 8, 10, 11
    3   16 S      6

          program call               : xtb tb_lite_results_shiftn0p1_gp404_b0_rot0_solute.xyz --ohess --chrg -1
          :  Hamiltonian                  GFN2-xTB          :
 * total energy  :   -13.3763324 Eh     change       -0.4636291E-12 Eh
 * total energy  :   -13.3771566 Eh     change       -0.8242193E-03 Eh
 * total energy  :   -13.3775496 Eh     change       -0.3929795E-03 Eh
 * total energy  :   -13.3779418 Eh     change       -0.3922611E-03 Eh
 * total energy  :   -13.3793191 Eh     change       -0.1377286E-02 Eh
 * total energy  :   -13.3799791 Eh     change       -0.6600317E-03 Eh
 * total energy  :   -13.3813173 Eh     change       -0.1338137E-02 Eh
 * total energy  :   -13.3818814 Eh     change       -0.5640875E-03 Eh
 * total energy  :   -13.3823560 Eh     change       -0.4745998E-03 Eh
 * total energy  :   -13.3825192 Eh     change       -0.1632671E-03 Eh
 * total energy  :   -13.3826109 Eh     change       -0.9169625E-04 Eh
 * total energy  :   -13.3826589 Eh     change       -0.4799415E-04 Eh
 * total energy  :   -13.3826888 Eh     change       -0.2989970E-04 Eh
 * total energy  :   -13.3827040 Eh     change       -0.1522594E-04 Eh
 * total energy  :   -13.3827101 Eh     change       -0.6034194E-05 Eh
 * total energy  :   -13.3827111 Eh     change       -0.1061313E-05 Eh
   *** GEOMETRY OPTIMIZATION CONVERGED AFTER 16 ITERATIONS ***

 final structure:
================
11
 xtb: 6.7.1 (edcfbbe)
C           -3.49332972227750        2.04661240382537        0.43373616676352
C           -0.46198553635618        1.20854665998850       -0.39192024230008
H           -1.35746137008576        0.57687173606537       -0.47435525076320
H           -3.33230632960676        2.26780047437879        1.47364408525455
H           -3.65047292698045        2.88993433568461       -0.21378526572049
S           -0.95099600613529        2.81701693668855        0.23512604536020
H            0.24984371039559        0.73241047669435        0.28873485663630
H           -0.00055419603700        1.30620584830103       -1.37888736009655
C           -3.64547384332671        0.79185310412357        0.00007170485008
H           -3.51666053683990       -0.06000439015813        0.65243344934573
H           -3.83407236115746        0.56360348857368       -1.03929219130098

          :  Hamiltonian                  GFN2-xTB          :
         :: gradient norm              0.000522026375 Eh/a0 ::
         :: HOMO-LUMO gap              2.456899719131 eV    ::
         :: SCC energy               -13.561029914620 Eh    ::
         :: -> dispersion             -0.006856139653 Eh    ::
         :: repulsion energy           0.178318769916 Eh    ::

    * Orbital Energies and Occupations

         #    Occupation            Energy/Eh            Energy/eV
      -------------------------------------------------------------
         1        2.0000           -0.4554759             -12.3941
         2        2.0000           -0.4317607             -11.7488
         3        2.0000           -0.4053213             -11.0294
         4        2.0000           -0.3794048             -10.3241
         5        2.0000           -0.3356605              -9.1338
         6        2.0000           -0.3068514              -8.3499
         7        2.0000           -0.3054171              -8.3108
         8        2.0000           -0.2981640              -8.1135
         9        2.0000           -0.2666261              -7.2553
        10        2.0000           -0.2450106              -6.6671
        11        2.0000           -0.2270766              -6.1791
        12        2.0000           -0.1192107              -3.2439
        13        2.0000           -0.1129478              -3.0735 (HOMO)
        14                         -0.0226584              -0.6166 (LUMO)
        15                          0.0554118               1.5078
        16                          0.2255620               6.1379
        17                          0.2259401               6.1481
        18                          0.2411138               6.5610
        19                          0.2510646               6.8318
        20                          0.3024287               8.2295
        21                          0.3278175               8.9204
        22                          0.3309775               9.0064
        23                          0.3727997              10.1444
        24                          0.4058465              11.0436
       ...                                ...                  ...
        28                          0.7302021              19.8698
      -------------------------------------------------------------
                  HL-Gap            0.0902894 Eh            2.4569 eV

     #   Z          covCN         q      C6AA      α(0)
     1   6 C        2.917    -0.046    29.131     8.851
     2   6 C        3.743     0.041    19.954     6.373
     3   1 H        0.924    -0.016     3.348     2.862
     4   1 H        0.926     0.017     2.772     2.604
     5   1 H        0.926     0.018     2.766     2.601
     6  16 S        1.055    -0.791   176.514    22.470
     7   1 H        0.924    -0.035     3.738     3.023
     8   1 H        0.924    -0.035     3.736     3.023
     9   6 C        2.832    -0.107    30.705     9.080
    10   1 H        0.926    -0.024     3.504     2.927
    11   1 H        0.926    -0.024     3.503     2.927

Wiberg/Mayer (AO) data.
largest (>0.10) Wiberg bond orders for each atom

     #   Z sym  total        # sym  WBO       # sym  WBO       # sym  WBO
 ---------------------------------------------------------------------------
     1   6 C    3.993 --     9 C    1.847     4 H    0.982     5 H    0.982
                             6 S    0.170
     2   6 C    3.992 --     6 S    1.035     7 H    0.988     8 H    0.988
                             3 H    0.968
     3   1 H    1.000 --     2 C    0.968
     4   1 H    1.000 --     1 C    0.982
     5   1 H    1.000 --     1 C    0.982
     6  16 S    1.366 --     2 C    1.035     1 C    0.170     9 C    0.135
     7   1 H    0.999 --     2 C    0.988
     8   1 H    0.999 --     2 C    0.988
     9   6 C    3.967 --     1 C    1.847    11 H    0.979    10 H    0.979
                             6 S    0.135
    10   1 H    0.999 --     9 C    0.979
    11   1 H    0.999 --     9 C    0.979
 ---------------------------------------------------------------------------

molecular dipole:
                 x           y           z       tot (Debye)
 q only:        2.547      -4.454      -0.275
   full:        2.669      -5.078      -0.508      14.638

 projected vibrational frequencies (cm⁻¹)
eigval :       -0.00    -0.00    -0.00     0.00     0.00     0.00
eigval :       69.29   142.27   163.44   183.22   273.86   384.22
eigval :      730.06   750.06   825.59   903.88   944.81   955.53
eigval :      968.78  1177.89  1322.44  1377.58  1427.59  1489.92
eigval :     1491.40  1623.50  2838.60  2896.17  2920.18  3052.34
eigval :     3055.90  3118.47  3140.51

   temp. (K)  partition function   enthalpy   heat capacity  entropy
                                   cal/mol     cal/K/mol   cal/K/mol   J/K/mol
 298.15  VIB   40.6                 2476.060     15.289     15.459
         ROT  0.103E+06              888.752      2.981     25.912
         INT  0.417E+07             3364.812     18.270     41.371
         TR   0.630E+27             1481.254      4.968     38.849
         TOT                        4846.0664    23.2382    80.2198   335.6395

       T/K    H(0)-H(T)+PV         H(T)/Eh          T*S/Eh         G(T)/Eh
   ------------------------------------------------------------------------
    298.15    0.772270E-02    0.948114E-01    0.381150E-01    0.566964E-01
   ------------------------------------------------------------------------

         :::::::::::::::::::::::::::::::::::::::::::::::::::::
         ::                  THERMODYNAMIC                  ::
         :::::::::::::::::::::::::::::::::::::::::::::::::::::
         :: total free energy         -13.326014763324 Eh   ::
         ::.................................................::
         :: total energy              -13.382711144704 Eh   ::
         :: zero point energy           0.087088678550 Eh   ::
         :: G(RRHO) w/o ZPVE           -0.030392297169 Eh   ::
         :: G(RRHO) contrib.            0.056696381381 Eh   ::
         :::::::::::::::::::::::::::::::::::::::::::::::::::::

           -------------------------------------------------
          | TOTAL ENERGY              -13.382711144704 Eh   |
          | TOTAL ENTHALPY            -13.287899767749 Eh   |
          | TOTAL FREE ENERGY         -13.326014763324 Eh   |
          | GRADIENT NORM               0.000522008878 Eh/α |
          | HOMO-LUMO GAP               2.456900463215 eV   |
           -------------------------------------------------

 * finished run on 2025/10/18 at 18:39:53.950
normal termination of xtb
