   * xtb version 6.7.1 (edcfbbe) compiled by 'albert@albert-system' on 2024-07-22

   ID    Z sym.   atoms
    1    6 C      1, 2, 9
    2    1 H      3-5, 7, 8, 10, 11, 13, 14
    3   16 S      6
    4    8 O      12

          program call               : xtb tb_lite_results_shiftn0p05_gp404_b0_rot0_complex.xyz --ohess --chrg -1 --alpb water
      * Solvation model:               ALPB
        Solvent                        water
        Solvent mass                       1.8000E+01 g/mol
          :  Hamiltonian                  GFN2-xTB          :
 * total energy  :   -18.5646597 Eh     change       -0.7421619E-10 Eh
 * total energy  :   -18.5648937 Eh     change       -0.2340041E-03 Eh
 * total energy  :   -18.5657337 Eh     change       -0.8399806E-03 Eh
 * total energy  :   -18.5659543 Eh     change       -0.2205236E-03 Eh
 * total energy  :   -18.5660811 Eh     change       -0.1268461E-03 Eh
 * total energy  :   -18.5661465 Eh     change       -0.6539516E-04 Eh
 * total energy  :   -18.5661909 Eh     change       -0.4435637E-04 Eh
 * total energy  :   -18.5662316 Eh     change       -0.4070072E-04 Eh
 * total energy  :   -18.5662942 Eh     change       -0.6267979E-04 Eh
 * total energy  :   -18.5663287 Eh     change       -0.3445792E-04 Eh
 * total energy  :   -18.5665047 Eh     change       -0.8938382E-05 Eh
 * total energy  :   -18.5665214 Eh     change       -0.1666461E-04 Eh
 * total energy  :   -18.5665347 Eh     change       -0.1336541E-04 Eh
 * total energy  :   -18.5665402 Eh     change       -0.5481007E-05 Eh
 * total energy  :   -18.5665453 Eh     change       -0.5116085E-05 Eh
 * total energy  :   -18.5665515 Eh     change       -0.6165888E-05 Eh
 * total energy  :   -18.5665583 Eh     change       -0.6850175E-05 Eh
 * total energy  :   -18.5665626 Eh     change       -0.4217358E-05 Eh
 * total energy  :   -18.5665662 Eh     change       -0.3635868E-05 Eh
   *** GEOMETRY OPTIMIZATION CONVERGED AFTER 27 ITERATIONS ***

 final structure:
================
14
 xtb: 6.7.1 (edcfbbe)
C           -3.83237698028696        1.91925205339861        0.37382882097853
C           -0.11849237790042        1.26815091789048       -0.38397544507216
H           -1.19840387548194        1.12541356677667       -0.32515005178069
H           -3.31181467488313        2.10683345732216        1.29975540553820
H           -3.94085515544355        2.77146149570548       -0.27834802835276
S            0.30730651107594        2.91829377058790        0.21821790428887
H            0.38535342187228        0.51745927682713        0.22822873361710
H            0.20850382588388        1.17132009172841       -1.42097357169160
C           -4.27356018114665        0.72369043102676        0.04075577869109
H           -4.14578060713360       -0.12727907289777        0.68948752801941
H           -4.77663516528383        0.54123953884295       -0.89496571199715
O           -1.50239873545550        3.01791140902896        2.74660543742237
H           -0.90399890460524        2.96825007062333        1.96650262611980
H           -1.34498214468620        3.89240480588410        3.11921922422717

          :  Hamiltonian                  GFN2-xTB          :
         :: gradient norm              0.000654751773 Eh/a0 ::
         :: HOMO-LUMO gap              2.485263374071 eV    ::
         :: SCC energy               -18.781710818737 Eh    ::
         :: -> dispersion             -0.006959880984 Eh    ::
         :: -> Gsolv                  -0.102613997316 Eh    ::
         :: repulsion energy           0.215144625192 Eh    ::

    * Orbital Energies and Occupations

         #    Occupation            Energy/Eh            Energy/eV
      -------------------------------------------------------------
         1        2.0000           -0.6555115             -17.8374
       ...           ...                  ...                  ...
         5        2.0000           -0.5447074             -14.8222
         6        2.0000           -0.5324602             -14.4890
         7        2.0000           -0.5011119             -13.6359
         8        2.0000           -0.4877186             -13.2715
         9        2.0000           -0.4787690             -13.0280
        10        2.0000           -0.4778078             -13.0018
        11        2.0000           -0.4657138             -12.6727
        12        2.0000           -0.4278047             -11.6412
        13        2.0000           -0.4216056             -11.4725
        14        2.0000           -0.4179204             -11.3722
        15        2.0000           -0.4095806             -11.1453
        16        2.0000           -0.2978074              -8.1038
        17        2.0000           -0.2932408              -7.9795 (HOMO)
        18                         -0.2019090              -5.4942 (LUMO)
        19                         -0.1311967              -3.5700
        20                          0.0214200               0.5829
        21                          0.0390823               1.0635
        22                          0.0430473               1.1714
        23                          0.0565795               1.5396
        24                          0.1362958               3.7088
        25                          0.1503689               4.0917
        26                          0.1574294               4.2839
        27                          0.1741204               4.7381
        28                          0.2124221               5.7803
       ...                                ...                  ...
        34                          0.6092557              16.5787
      -------------------------------------------------------------
                  HL-Gap            0.0913318 Eh            2.4853 eV

     #   Z          covCN         q      C6AA      α(0)
     1   6 C        2.832    -0.073    29.808     8.947
     2   6 C        3.743     0.037    20.018     6.383
     3   1 H        0.925    -0.013     3.293     2.838
     4   1 H        0.926     0.042     2.419     2.432
     5   1 H        0.926     0.035     2.515     2.480
     6  16 S        0.990    -0.934   184.506    22.974
     7   1 H        0.924    -0.021     3.440     2.901
     8   1 H        0.924    -0.023     3.481     2.918
     9   6 C        2.832    -0.089    30.218     9.008
    10   1 H        0.926     0.039     2.459     2.452
    11   1 H        0.926     0.045     2.381     2.413
    12   8 O        1.607    -0.675    27.056     7.020
    13   1 H        0.822     0.278     0.788     1.393
    14   1 H        0.805     0.350     0.589     1.205

Wiberg/Mayer (AO) data.
largest (>0.10) Wiberg bond orders for each atom

     #   Z sym  total        # sym  WBO       # sym  WBO       # sym  WBO
 ---------------------------------------------------------------------------
     1   6 C    3.991 --     9 C    2.034     5 H    0.977     4 H    0.974
     2   6 C    3.994 --     6 S    1.024     7 H    0.990     8 H    0.989
                             3 H    0.987
     3   1 H    1.000 --     2 C    0.987
     4   1 H    0.998 --     1 C    0.974
     5   1 H    0.999 --     1 C    0.977
     6  16 S    1.145 --     2 C    1.024
     7   1 H    1.000 --     2 C    0.990
     8   1 H    0.999 --     2 C    0.989
     9   6 C    3.992 --     1 C    2.034    10 H    0.977    11 H    0.976
    10   1 H    0.998 --     9 C    0.977
    11   1 H    0.998 --     9 C    0.976
    12   8 O    1.776 --    14 H    0.877    13 H    0.862
    13   1 H    0.923 --    12 O    0.862
    14   1 H    0.878 --    12 O    0.877
 ---------------------------------------------------------------------------

molecular dipole:
                 x           y           z       tot (Debye)
 q only:        0.013      -4.873      -0.760
   full:        0.090      -5.298      -1.112      13.761

 projected vibrational frequencies (cm⁻¹)
eigval :       -0.00    -0.00     0.00     0.00     0.00     0.00
eigval :       16.09    25.27    44.36    54.69    64.58    73.37
eigval :       78.61   123.44   156.02   185.38   417.55   605.83
eigval :      731.07   845.52   874.22   946.78   948.53  1026.00
eigval :     1043.04  1180.19  1321.60  1392.62  1416.21  1484.56
eigval :     1486.00  1519.19  1701.28  2924.75  2939.08  2958.44
eigval :     3044.37  3087.32  3091.89  3100.45  3119.57  3594.14

   temp. (K)  partition function   enthalpy   heat capacity  entropy
                                   cal/mol     cal/K/mol   cal/K/mol   J/K/mol
 298.15  VIB  0.999E+06             5418.007     22.708     39.514
         ROT  0.416E+06              888.752      2.981     28.694
         INT  0.416E+12             6306.759     25.689     68.208
         TR   0.870E+27             1481.254      4.968     39.489
         TOT                        7788.0134    30.6571   107.6972   450.6051

       T/K    H(0)-H(T)+PV         H(T)/Eh          T*S/Eh         G(T)/Eh
   ------------------------------------------------------------------------
    298.15    0.124110E-01    0.120902E+00    0.511704E-01    0.697315E-01
   ------------------------------------------------------------------------

         :::::::::::::::::::::::::::::::::::::::::::::::::::::
         ::                  THERMODYNAMIC                  ::
         :::::::::::::::::::::::::::::::::::::::::::::::::::::
         :: total free energy         -18.496834692209 Eh   ::
         ::.................................................::
         :: total energy              -18.566566196574 Eh   ::
         :: zero point energy           0.108490930318 Eh   ::
         :: G(RRHO) w/o ZPVE           -0.038759425953 Eh   ::
         :: G(RRHO) contrib.            0.069731504366 Eh   ::
         :::::::::::::::::::::::::::::::::::::::::::::::::::::

           -------------------------------------------------
          | TOTAL ENERGY              -18.566566196574 Eh   |
          | TOTAL ENTHALPY            -18.445664276978 Eh   |
          | TOTAL FREE ENERGY         -18.496834692209 Eh   |
          | GRADIENT NORM               0.000654754096 Eh/α |
          | HOMO-LUMO GAP               2.485265425012 eV   |
           -------------------------------------------------

 * finished run on 2025/10/18 at 18:39:56.447
normal termination of xtb
