   * xtb version 6.7.1 (edcfbbe) compiled by 'albert@albert-system' on 2024-07-22

   ID    Z sym.   atoms
    1    6 C      1, 2, 9
    2    1 H      3-5, 7, 8, 10, 11, 13, 14
    3   16 S      6
    4    8 O      12

          program call               : xtb tb_lite_results_shiftn0p15_gp404_b0_rot0_complex.xyz --ohess --chrg -1 --alpb water
      * Solvation model:               ALPB
        Solvent                        water
        Solvent mass                       1.8000E+01 g/mol
          :  Hamiltonian                  GFN2-xTB          :
 * total energy  :   -18.5638117 Eh     change       -0.7609202E-10 Eh
 * total energy  :   -18.5652051 Eh     change       -0.1393326E-02 Eh
 * total energy  :   -18.5658046 Eh     change       -0.5995219E-03 Eh
 * total energy  :   -18.5660248 Eh     change       -0.2201623E-03 Eh
 * total energy  :   -18.5661149 Eh     change       -0.9015195E-04 Eh
 * total energy  :   -18.5661741 Eh     change       -0.5918999E-04 Eh
 * total energy  :   -18.5662356 Eh     change       -0.6148045E-04 Eh
 * total energy  :   -18.5662782 Eh     change       -0.4265949E-04 Eh
 * total energy  :   -18.5663188 Eh     change       -0.4053529E-04 Eh
 * total energy  :   -18.5663418 Eh     change       -0.2302975E-04 Eh
 * total energy  :   -18.5664853 Eh     change       -0.1273383E-04 Eh
 * total energy  :   -18.5664949 Eh     change       -0.9576779E-05 Eh
 * total energy  :   -18.5665088 Eh     change       -0.1388761E-04 Eh
 * total energy  :   -18.5665214 Eh     change       -0.1256124E-04 Eh
 * total energy  :   -18.5665244 Eh     change       -0.3065804E-05 Eh
 * total energy  :   -18.5665473 Eh     change       -0.2289186E-04 Eh
 * total energy  :   -18.5665561 Eh     change       -0.8818232E-05 Eh
 * total energy  :   -18.5665602 Eh     change       -0.4102856E-05 Eh
 * total energy  :   -18.5665633 Eh     change       -0.3072064E-05 Eh
   *** GEOMETRY OPTIMIZATION CONVERGED AFTER 24 ITERATIONS ***

 final structure:
================
14
 xtb: 6.7.1 (edcfbbe)
C           -3.82471376979929        1.90899169005413        0.36010371553600
C           -0.11560507407331        1.26036552745140       -0.39835762173368
H           -1.19295704350264        1.11076887671376       -0.31881610895960
H           -3.28056565787590        2.09649214599172        1.27255592028832
H           -3.95603009892559        2.76306189752124       -0.28506525010107
S            0.30712135400164        2.92598673554810        0.16065779413988
H            0.40417315526580        0.52676539208563        0.22028862608848
H            0.19510215520951        1.14377217221176       -1.43891377965083
C           -4.27545691980117        0.71449478371576        0.03696625408849
H           -4.12927556769605       -0.13804124320232        0.67954192027832
H           -4.80711394240323        0.53485439105264       -0.88390555143676
O           -1.46945553899719        3.05396546649550        2.70449742146864
H           -0.88208183777880        2.99726878586307        1.91572119246957
H           -1.27776554843377        3.91565519124360        3.09046644436266

          :  Hamiltonian                  GFN2-xTB          :
         :: gradient norm              0.000894151425 Eh/a0 ::
         :: HOMO-LUMO gap              2.487057853677 eV    ::
         :: SCC energy               -18.781719345276 Eh    ::
         :: -> dispersion             -0.006957760629 Eh    ::
         :: -> Gsolv                  -0.102626213558 Eh    ::
         :: repulsion energy           0.215156037549 Eh    ::

    * Orbital Energies and Occupations

         #    Occupation            Energy/Eh            Energy/eV
      -------------------------------------------------------------
         1        2.0000           -0.6553747             -17.8337
       ...           ...                  ...                  ...
         5        2.0000           -0.5447546             -14.8235
         6        2.0000           -0.5323940             -14.4872
         7        2.0000           -0.5011856             -13.6380
         8        2.0000           -0.4875820             -13.2678
         9        2.0000           -0.4787297             -13.0269
        10        2.0000           -0.4777647             -13.0006
        11        2.0000           -0.4657019             -12.6724
        12        2.0000           -0.4275199             -11.6334
        13        2.0000           -0.4216666             -11.4741
        14        2.0000           -0.4181140             -11.3775
        15        2.0000           -0.4097196             -11.1490
        16        2.0000           -0.2979397              -8.1074
        17        2.0000           -0.2933171              -7.9816 (HOMO)
        18                         -0.2019194              -5.4945 (LUMO)
        19                         -0.1311675              -3.5692
        20                          0.0211085               0.5744
        21                          0.0389613               1.0602
        22                          0.0431005               1.1728
        23                          0.0564655               1.5365
        24                          0.1358780               3.6974
        25                          0.1505679               4.0972
        26                          0.1577472               4.2925
        27                          0.1738520               4.7308
        28                          0.2122737               5.7763
       ...                                ...                  ...
        34                          0.6098122              16.5938
      -------------------------------------------------------------
                  HL-Gap            0.0913977 Eh            2.4871 eV

     #   Z          covCN         q      C6AA      α(0)
     1   6 C        2.832    -0.073    29.802     8.946
     2   6 C        3.743     0.037    20.019     6.383
     3   1 H        0.925    -0.013     3.288     2.836
     4   1 H        0.926     0.042     2.428     2.437
     5   1 H        0.926     0.035     2.511     2.478
     6  16 S        0.992    -0.933   184.465    22.972
     7   1 H        0.924    -0.020     3.433     2.898
     8   1 H        0.924    -0.023     3.486     2.920
     9   6 C        2.832    -0.089    30.219     9.008
    10   1 H        0.926     0.039     2.460     2.453
    11   1 H        0.926     0.046     2.375     2.410
    12   8 O        1.607    -0.676    27.074     7.023
    13   1 H        0.824     0.277     0.789     1.394
    14   1 H        0.805     0.350     0.589     1.205

Wiberg/Mayer (AO) data.
largest (>0.10) Wiberg bond orders for each atom

     #   Z sym  total        # sym  WBO       # sym  WBO       # sym  WBO
 ---------------------------------------------------------------------------
     1   6 C    3.991 --     9 C    2.034     5 H    0.977     4 H    0.974
     2   6 C    3.994 --     6 S    1.024     7 H    0.990     8 H    0.989
                             3 H    0.987
     3   1 H    1.000 --     2 C    0.987
     4   1 H    0.998 --     1 C    0.974
     5   1 H    0.999 --     1 C    0.977
     6  16 S    1.148 --     2 C    1.024
     7   1 H    1.000 --     2 C    0.990
     8   1 H    0.999 --     2 C    0.989
     9   6 C    3.992 --     1 C    2.034    10 H    0.977    11 H    0.976
    10   1 H    0.998 --     9 C    0.977
    11   1 H    0.998 --     9 C    0.976
    12   8 O    1.775 --    14 H    0.877    13 H    0.861
    13   1 H    0.923 --    12 O    0.861
    14   1 H    0.878 --    12 O    0.877
 ---------------------------------------------------------------------------

molecular dipole:
                 x           y           z       tot (Debye)
 q only:        0.027      -4.904      -0.658
   full:        0.105      -5.336      -0.994      13.798

 projected vibrational frequencies (cm⁻¹)
eigval :       -0.00    -0.00    -0.00     0.00     0.00     0.00
eigval :      -25.42    23.20    41.71    48.83    62.43    69.68
eigval :       74.51   120.90   141.44   185.74   420.11   608.58
eigval :      731.85   845.12   874.93   946.10   948.94  1025.51
eigval :     1044.49  1179.79  1321.60  1392.62  1416.04  1484.40
eigval :     1485.67  1519.83  1702.14  2923.80  2940.26  2960.86
eigval :     3029.78  3085.44  3092.28  3100.15  3118.68  3595.08

   temp. (K)  partition function   enthalpy   heat capacity  entropy
                                   cal/mol     cal/K/mol   cal/K/mol   J/K/mol
 298.15  VIB  0.115E+06             4890.671     21.440     35.282
         ROT  0.417E+06              888.752      2.981     28.697
         INT  0.479E+11             5779.424     24.420     63.978
         TR   0.870E+27             1481.254      4.968     39.489
         TOT                        7260.6775    29.3886   103.4673   432.9073

       T/K    H(0)-H(T)+PV         H(T)/Eh          T*S/Eh         G(T)/Eh
   ------------------------------------------------------------------------
    298.15    0.115706E-01    0.119926E+00    0.491607E-01    0.707653E-01
   ------------------------------------------------------------------------

         :::::::::::::::::::::::::::::::::::::::::::::::::::::
         ::                  THERMODYNAMIC                  ::
         :::::::::::::::::::::::::::::::::::::::::::::::::::::
         :: total free energy         -18.495798008631 Eh   ::
         ::.................................................::
         :: total energy              -18.566563310395 Eh   ::
         :: zero point energy           0.108355344239 Eh   ::
         :: G(RRHO) w/o ZPVE           -0.037590042475 Eh   ::
         :: G(RRHO) contrib.            0.070765301764 Eh   ::
         :::::::::::::::::::::::::::::::::::::::::::::::::::::

           -------------------------------------------------
          | TOTAL ENERGY              -18.566563310395 Eh   |
          | TOTAL ENTHALPY            -18.446637340011 Eh   |
          | TOTAL FREE ENERGY         -18.495798008631 Eh   |
          | GRADIENT NORM               0.000894088006 Eh/α |
          | HOMO-LUMO GAP               2.487057571741 eV   |
           -------------------------------------------------

 * finished run on 2025/10/18 at 18:40:00.320
normal termination of xtb
