   * xtb version 6.7.1 (edcfbbe) compiled by 'albert@albert-system' on 2024-07-22

   ID    Z sym.   atoms
    1    6 C      1, 2, 9
    2    1 H      3-5, 7, 8, 10, 11, 13, 14
    3   16 S      6
    4    8 O      12

          program call               : xtb tb_lite_results_shiftn0p1_gp404_b0_rot0_complex.xyz --ohess --chrg -1 --alpb water
      * Solvation model:               ALPB
        Solvent                        water
        Solvent mass                       1.8000E+01 g/mol
          :  Hamiltonian                  GFN2-xTB          :
 * total energy  :   -18.5643475 Eh     change       -0.7976197E-10 Eh
 * total energy  :   -18.5650621 Eh     change       -0.7146479E-03 Eh
 * total energy  :   -18.5657755 Eh     change       -0.7133040E-03 Eh
 * total energy  :   -18.5659931 Eh     change       -0.2176758E-03 Eh
 * total energy  :   -18.5661040 Eh     change       -0.1108997E-03 Eh
 * total energy  :   -18.5661540 Eh     change       -0.4996363E-04 Eh
 * total energy  :   -18.5662082 Eh     change       -0.5420662E-04 Eh
 * total energy  :   -18.5662517 Eh     change       -0.4351759E-04 Eh
 * total energy  :   -18.5662925 Eh     change       -0.4078971E-04 Eh
 * total energy  :   -18.5663326 Eh     change       -0.4010830E-04 Eh
 * total energy  :   -18.5664849 Eh     change       -0.1991144E-04 Eh
 * total energy  :   -18.5664877 Eh     change       -0.2894477E-05 Eh
 * total energy  :   -18.5665008 Eh     change       -0.1308871E-04 Eh
 * total energy  :   -18.5665119 Eh     change       -0.1110191E-04 Eh
 * total energy  :   -18.5665261 Eh     change       -0.1414432E-04 Eh
 * total energy  :   -18.5665403 Eh     change       -0.1424696E-04 Eh
 * total energy  :   -18.5665462 Eh     change       -0.5913355E-05 Eh
 * total energy  :   -18.5665510 Eh     change       -0.4731884E-05 Eh
 * total energy  :   -18.5665554 Eh     change       -0.4444826E-05 Eh
   *** GEOMETRY OPTIMIZATION CONVERGED AFTER 24 ITERATIONS ***

 final structure:
================
14
 xtb: 6.7.1 (edcfbbe)
C           -3.82947160455202        1.91363513034139        0.37274602740072
C           -0.12320985692667        1.26378233246749       -0.38665057475948
H           -1.19854343343443        1.09882540905079       -0.30902199666798
H           -3.29415510545526        2.08891704885162        1.29264846956907
H           -3.96021010128256        2.77740352365190       -0.25948095036767
S            0.27300350798573        2.93709833677274        0.16873064695866
H            0.40575144989064        0.53989165908333        0.23555366724927
H            0.19085783714481        1.14866962418698       -1.42601644629009
C           -4.26547200442740        0.72080078284846        0.02387333899900
H           -4.11648112030873       -0.14200078383251        0.65227325207347
H           -4.78485123946513        0.55217052206250       -0.90552996888137
O           -1.47936187735594        3.03266049025805        2.73265280776380
H           -0.89844860368295        2.98503157320527        1.93912103161893
H           -1.29578753727297        3.89751616379830        3.11656550875756

          :  Hamiltonian                  GFN2-xTB          :
         :: gradient norm              0.000563411637 Eh/a0 ::
         :: HOMO-LUMO gap              2.486570920144 eV    ::
         :: SCC energy               -18.781772326371 Eh    ::
         :: -> dispersion             -0.006983771995 Eh    ::
         :: -> Gsolv                  -0.102632377487 Eh    ::
         :: repulsion energy           0.215216909346 Eh    ::

    * Orbital Energies and Occupations

         #    Occupation            Energy/Eh            Energy/eV
      -------------------------------------------------------------
         1        2.0000           -0.6554269             -17.8351
       ...           ...                  ...                  ...
         5        2.0000           -0.5447333             -14.8229
         6        2.0000           -0.5323460             -14.4859
         7        2.0000           -0.5011611             -13.6373
         8        2.0000           -0.4877109             -13.2713
         9        2.0000           -0.4787662             -13.0279
        10        2.0000           -0.4777590             -13.0005
        11        2.0000           -0.4657011             -12.6724
        12        2.0000           -0.4275783             -11.6350
        13        2.0000           -0.4216353             -11.4733
        14        2.0000           -0.4181104             -11.3774
        15        2.0000           -0.4096109             -11.1461
        16        2.0000           -0.2978661              -8.1053
        17        2.0000           -0.2932541              -7.9799 (HOMO)
        18                         -0.2018742              -5.4933 (LUMO)
        19                         -0.1311206              -3.5680
        20                          0.0214796               0.5845
        21                          0.0390165               1.0617
        22                          0.0429346               1.1683
        23                          0.0565664               1.5392
        24                          0.1361359               3.7044
        25                          0.1504426               4.0938
        26                          0.1577615               4.2929
        27                          0.1739847               4.7344
        28                          0.2122996               5.7770
       ...                                ...                  ...
        34                          0.6095946              16.5879
      -------------------------------------------------------------
                  HL-Gap            0.0913799 Eh            2.4866 eV

     #   Z          covCN         q      C6AA      α(0)
     1   6 C        2.832    -0.072    29.797     8.945
     2   6 C        3.743     0.037    20.019     6.383
     3   1 H        0.925    -0.013     3.292     2.837
     4   1 H        0.926     0.042     2.426     2.436
     5   1 H        0.926     0.035     2.510     2.477
     6  16 S        0.992    -0.933   184.481    22.973
     7   1 H        0.924    -0.020     3.433     2.897
     8   1 H        0.924    -0.023     3.486     2.920
     9   6 C        2.832    -0.089    30.216     9.008
    10   1 H        0.926     0.039     2.465     2.455
    11   1 H        0.926     0.045     2.378     2.411
    12   8 O        1.607    -0.676    27.068     7.022
    13   1 H        0.823     0.278     0.789     1.394
    14   1 H        0.805     0.350     0.589     1.205

Wiberg/Mayer (AO) data.
largest (>0.10) Wiberg bond orders for each atom

     #   Z sym  total        # sym  WBO       # sym  WBO       # sym  WBO
 ---------------------------------------------------------------------------
     1   6 C    3.991 --     9 C    2.034     5 H    0.977     4 H    0.974
     2   6 C    3.994 --     6 S    1.024     7 H    0.990     8 H    0.989
                             3 H    0.987
     3   1 H    1.000 --     2 C    0.987
     4   1 H    0.998 --     1 C    0.974
     5   1 H    0.999 --     1 C    0.977
     6  16 S    1.147 --     2 C    1.024
     7   1 H    1.000 --     2 C    0.990
     8   1 H    0.999 --     2 C    0.989
     9   6 C    3.992 --     1 C    2.034    10 H    0.977    11 H    0.976
    10   1 H    0.998 --     9 C    0.977
    11   1 H    0.998 --     9 C    0.976
    12   8 O    1.775 --    14 H    0.877    13 H    0.861
    13   1 H    0.923 --    12 O    0.861
    14   1 H    0.878 --    12 O    0.877
 ---------------------------------------------------------------------------

molecular dipole:
                 x           y           z       tot (Debye)
 q only:        0.079      -4.912      -0.676
   full:        0.163      -5.345      -1.014      13.835

 projected vibrational frequencies (cm⁻¹)
eigval :       -0.00    -0.00    -0.00     0.00     0.00     0.00
eigval :      -16.83    23.22    41.77    48.20    57.53    67.50
eigval :       73.63   127.30   151.72   185.32   417.49   605.43
eigval :      731.84   844.80   874.67   945.88   948.29  1025.74
eigval :     1043.67  1179.74  1321.24  1392.54  1416.07  1484.60
eigval :     1485.18  1519.26  1701.75  2926.26  2941.09  2960.80
eigval :     3038.47  3088.10  3092.82  3100.05  3119.66  3589.19

   temp. (K)  partition function   enthalpy   heat capacity  entropy
                                   cal/mol     cal/K/mol   cal/K/mol   J/K/mol
 298.15  VIB  0.152E+07             5455.014     22.347     39.833
         ROT  0.414E+06              888.752      2.981     28.685
         INT  0.632E+12             6343.766     25.327     68.519
         TR   0.870E+27             1481.254      4.968     39.489
         TOT                        7825.0201    30.2956   108.0080   451.9055

       T/K    H(0)-H(T)+PV         H(T)/Eh          T*S/Eh         G(T)/Eh
   ------------------------------------------------------------------------
    298.15    0.124700E-01    0.120883E+00    0.513181E-01    0.695645E-01
   ------------------------------------------------------------------------

         :::::::::::::::::::::::::::::::::::::::::::::::::::::
         ::                  THERMODYNAMIC                  ::
         :::::::::::::::::::::::::::::::::::::::::::::::::::::
         :: total free energy         -18.496990905555 Eh   ::
         ::.................................................::
         :: total energy              -18.566555419426 Eh   ::
         :: zero point energy           0.108412640011 Eh   ::
         :: G(RRHO) w/o ZPVE           -0.038848126140 Eh   ::
         :: G(RRHO) contrib.            0.069564513871 Eh   ::
         :::::::::::::::::::::::::::::::::::::::::::::::::::::

           -------------------------------------------------
          | TOTAL ENERGY              -18.566555419426 Eh   |
          | TOTAL ENTHALPY            -18.445672816182 Eh   |
          | TOTAL FREE ENERGY         -18.496990905555 Eh   |
          | GRADIENT NORM               0.000563418982 Eh/α |
          | HOMO-LUMO GAP               2.486572969431 eV   |
           -------------------------------------------------

 * finished run on 2025/10/18 at 18:39:53.613
normal termination of xtb
