   * xtb version 6.7.1 (edcfbbe) compiled by 'albert@albert-system' on 2024-07-22

   ID    Z sym.   atoms
    1    6 C      1-5, 7
    2    1 H      6, 8-10, 12
    3   16 S      11

          program call               : xtb xyz.xyz --alpb water --charge -1 --ohess
      * Solvation model:               ALPB
        Solvent                        water
        Solvent mass                       1.8000E+01 g/mol
          :  Hamiltonian                  GFN2-xTB          :
 * total energy  :   -18.9273845 Eh     change       -0.2266276E-10 Eh
 * total energy  :   -18.9287326 Eh     change       -0.1348120E-02 Eh
 * total energy  :   -18.9288930 Eh     change       -0.1603666E-03 Eh
 * total energy  :   -18.9288993 Eh     change       -0.6342911E-05 Eh
 * total energy  :   -18.9289002 Eh     change       -0.8535036E-06 Eh
   *** GEOMETRY OPTIMIZATION CONVERGED AFTER 5 ITERATIONS ***

 final structure:
================
12
 xtb: 6.7.1 (edcfbbe)
C           -3.23056540612854       -2.28108248909749        0.62621284932617
C           -2.72308763437745       -3.14581247204932       -0.31851939018529
C           -3.40662902298754       -4.30545373920092       -0.65420807032210
C           -4.61144047190453       -4.58564971602332       -0.02602648030912
C           -5.12573441599978       -3.72620876051326        0.91984412363498
H           -1.78213813054741       -2.91257991519907       -0.79935199507688
C           -4.44640210889305       -2.55086154252123        1.27004367572658
H           -3.00598453040717       -4.98135961861068       -1.39497763796219
H           -2.70258537440880       -1.37341870124768        0.89357932928599
H           -6.06598550979337       -3.93818125025436        1.41493185320288
S           -5.08590499131944       -1.47138833756214        2.45567279363219
H           -5.15713640323291       -5.48587245772052       -0.27659605095321

          :  Hamiltonian                  GFN2-xTB          :
         :: gradient norm              0.000316040431 Eh/a0 ::
         :: HOMO-LUMO gap              2.571763021692 eV    ::
         :: SCC energy               -19.234972358717 Eh    ::
         :: -> dispersion             -0.010944898940 Eh    ::
         :: -> Gsolv                  -0.086396458622 Eh    ::
         :: repulsion energy           0.306072167415 Eh    ::

    * Orbital Energies and Occupations

         #    Occupation            Energy/Eh            Energy/eV
      -------------------------------------------------------------
         1        2.0000           -0.6390617             -17.3898
       ...           ...                  ...                  ...
         6        2.0000           -0.5451573             -14.8345
         7        2.0000           -0.5100505             -13.8792
         8        2.0000           -0.4786545             -13.0249
         9        2.0000           -0.4699188             -12.7871
        10        2.0000           -0.4618152             -12.5666
        11        2.0000           -0.4555620             -12.3965
        12        2.0000           -0.4437640             -12.0754
        13        2.0000           -0.4070443             -11.0762
        14        2.0000           -0.3928768             -10.6907
        15        2.0000           -0.3895693             -10.6007
        16        2.0000           -0.3849796             -10.4758
        17        2.0000           -0.3033531              -8.2547
        18        2.0000           -0.2969724              -8.0810 (HOMO)
        19                         -0.2024620              -5.5093 (LUMO)
        20                         -0.1976682              -5.3788
        21                         -0.1083928              -2.9495
        22                         -0.0793276              -2.1586
        23                          0.0458721               1.2482
        24                          0.0518074               1.4098
        25                          0.0525061               1.4288
        26                          0.0941209               2.5612
        27                          0.1355217               3.6877
        28                          0.1535481               4.1783
        29                          0.1773313               4.8254
       ...                                ...                  ...
        38                          0.6836891              18.6041
      -------------------------------------------------------------
                  HL-Gap            0.0945104 Eh            2.5718 eV

     #   Z          covCN         q      C6AA      α(0)
     1   6 C        2.966    -0.054    29.349     8.886
     2   6 C        2.917    -0.044    29.097     8.846
     3   6 C        2.919    -0.061    29.520     8.910
     4   6 C        2.917    -0.044    29.097     8.846
     5   6 C        2.966    -0.054    29.349     8.886
     6   1 H        0.925     0.013     2.834     2.633
     7   6 C        2.961     0.072    26.385     8.425
     8   1 H        0.926     0.018     2.767     2.601
     9   1 H        0.925    -0.009     3.219     2.806
    10   1 H        0.925    -0.009     3.219     2.806
    11  16 S        1.070    -0.841   179.273    22.644
    12   1 H        0.925     0.013     2.834     2.633

Wiberg/Mayer (AO) data.
largest (>0.10) Wiberg bond orders for each atom

     #   Z sym  total        # sym  WBO       # sym  WBO       # sym  WBO
 ---------------------------------------------------------------------------
     1   6 C    3.988 --     2 C    1.475     7 C    1.337     9 H    0.972
     2   6 C    3.991 --     1 C    1.475     3 C    1.412     6 H    0.971
     3   6 C    3.987 --     2 C    1.412     4 C    1.412     8 H    0.972
     4   6 C    3.991 --     5 C    1.475     3 C    1.412    12 H    0.971
     5   6 C    3.988 --     4 C    1.475     7 C    1.337    10 H    0.972
     6   1 H    1.000 --     2 C    0.971
     7   6 C    3.975 --     1 C    1.337     5 C    1.337    11 S    1.189
     8   1 H    0.999 --     3 C    0.972
     9   1 H    1.000 --     1 C    0.972
    10   1 H    1.000 --     5 C    0.972
    11  16 S    1.440 --     7 C    1.189
    12   1 H    1.000 --     4 C    0.971
 ---------------------------------------------------------------------------

molecular dipole:
                 x           y           z       tot (Debye)
 q only:        9.209       3.459      -3.896
   full:        9.310       3.288      -4.083      27.158

 projected vibrational frequencies (cm⁻¹)
eigval :       -0.00    -0.00     0.00     0.00     0.00     0.00
eigval :      164.03   272.09   368.72   409.92   435.07   584.22
eigval :      639.93   703.16   731.17   848.99   858.88   909.48
eigval :      911.63   963.17  1077.77  1108.93  1109.65  1174.21
eigval :     1198.42  1277.96  1326.91  1428.65  1448.64  1549.80
eigval :     1589.50  3023.42  3028.34  3040.39  3044.67  3073.09

   temp. (K)  partition function   enthalpy   heat capacity  entropy
                                   cal/mol     cal/K/mol   cal/K/mol   J/K/mol
 298.15  VIB   5.20                 1845.651     15.983      9.467
         ROT  0.125E+06              888.752      2.981     26.305
         INT  0.651E+06             2734.404     18.964     35.772
         TR   0.110E+28             1481.254      4.968     39.961
         TOT                        4215.6575    23.9322    75.7334   316.8685

       T/K    H(0)-H(T)+PV         H(T)/Eh          T*S/Eh         G(T)/Eh
   ------------------------------------------------------------------------
    298.15    0.671808E-02    0.939738E-01    0.359834E-01    0.579904E-01
   ------------------------------------------------------------------------

         :::::::::::::::::::::::::::::::::::::::::::::::::::::
         ::                  THERMODYNAMIC                  ::
         :::::::::::::::::::::::::::::::::::::::::::::::::::::
         :: total free energy         -18.870909800979 Eh   ::
         ::.................................................::
         :: total energy              -18.928900191749 Eh   ::
         :: zero point energy           0.087255694300 Eh   ::
         :: G(RRHO) w/o ZPVE           -0.029265303529 Eh   ::
         :: G(RRHO) contrib.            0.057990390771 Eh   ::
         :::::::::::::::::::::::::::::::::::::::::::::::::::::

           -------------------------------------------------
          | TOTAL ENERGY              -18.928900191749 Eh   |
          | TOTAL ENTHALPY            -18.834926419522 Eh   |
          | TOTAL FREE ENERGY         -18.870909800979 Eh   |
          | GRADIENT NORM               0.000316012277 Eh/α |
          | HOMO-LUMO GAP               2.571759729723 eV   |
           -------------------------------------------------

 * finished run on 2025/10/18 at 06:41:51.154
