   * xtb version 6.7.1 (edcfbbe) compiled by 'albert@albert-system' on 2024-07-22

   ID    Z sym.   atoms
    1    6 C      1, 2
    2    1 H      3, 4, 6
    3    8 O      5

          program call               : xtb xyz.xyz --charge -1 --ohess
          :  Hamiltonian                  GFN2-xTB          :
 * total energy  :    -9.9979846 Eh     change       -0.6337153E-10 Eh
 * total energy  :   -10.0164302 Eh     change       -0.1844552E-01 Eh
 * total energy  :   -10.0196848 Eh     change       -0.3254680E-02 Eh
 * total energy  :   -10.0207187 Eh     change       -0.1033827E-02 Eh
 * total energy  :   -10.0211203 Eh     change       -0.4016439E-03 Eh
 * total energy  :   -10.0211441 Eh     change       -0.2377571E-04 Eh
 * total energy  :   -10.0212905 Eh     change       -0.1464301E-03 Eh
 * total energy  :   -10.0212980 Eh     change       -0.7484282E-05 Eh
 * total energy  :   -10.0212998 Eh     change       -0.1777994E-05 Eh
   *** GEOMETRY OPTIMIZATION CONVERGED AFTER 9 ITERATIONS ***

 final structure:
================
6
 xtb: 6.7.1 (edcfbbe)
C           -6.28092111347672       -4.18013583883703        0.83132958715229
C           -7.35031610270879       -4.58929854333365        1.55355877453102
H           -6.15965571752358       -4.46245103988554       -0.20793024907632
H           -5.50587711122171       -3.55754762469556        1.25756989456095
O           -7.65243361717356       -4.36144853299112        2.75838867506378
H           -8.07428933789564       -5.23920242025710        0.95741631776828

          :  Hamiltonian                  GFN2-xTB          :
         :: gradient norm              0.000487355263 Eh/a0 ::
         :: HOMO-LUMO gap              4.832630359546 eV    ::
         :: SCC energy               -10.134419805316 Eh    ::
         :: -> dispersion             -0.002663063614 Eh    ::
         :: repulsion energy           0.113120028982 Eh    ::

    * Orbital Energies and Occupations

         #    Occupation            Energy/Eh            Energy/eV
      -------------------------------------------------------------
         1        2.0000           -0.4083433             -11.1116
         2        2.0000           -0.3577253              -9.7342
         3        2.0000           -0.3129251              -8.5151
         4        2.0000           -0.2754864              -7.4964
         5        2.0000           -0.2396420              -6.5210
         6        2.0000           -0.2251999              -6.1280
         7        2.0000           -0.2168988              -5.9021
         8        2.0000           -0.1202116              -3.2711
         9        2.0000           -0.0995747              -2.7096 (HOMO)
        10                          0.0780211               2.1231 (LUMO)
        11                          0.3278915               8.9224
        12                          0.3695805              10.0568
        13                          0.4912618              13.3679
        14                          0.6838711              18.6091
        15                          0.8552981              23.2738
      -------------------------------------------------------------
                  HL-Gap            0.1775958 Eh            4.8326 eV

     #   Z          covCN         q      C6AA      α(0)
     1   6 C        2.832    -0.217    33.768     9.523
     2   6 C        2.750     0.165    24.434     8.094
     3   1 H        0.925    -0.087     5.128     3.541
     4   1 H        0.925    -0.064     4.439     3.295
     5   8 O        0.856    -0.654    27.487     7.029
     6   1 H        0.915    -0.143     7.346     4.239

Wiberg/Mayer (AO) data.
largest (>0.10) Wiberg bond orders for each atom

     #   Z sym  total        # sym  WBO       # sym  WBO       # sym  WBO
 ---------------------------------------------------------------------------
     1   6 C    3.837 --     2 C    1.628     4 H    0.977     3 H    0.977
                             5 O    0.250
     2   6 C    3.968 --     1 C    1.628     5 O    1.428     6 H    0.909
     3   1 H    0.992 --     1 C    0.977
     4   1 H    0.996 --     1 C    0.977
     5   8 O    1.742 --     2 C    1.428     1 C    0.250
     6   1 H    0.980 --     2 C    0.909
 ---------------------------------------------------------------------------

molecular dipole:
                 x           y           z       tot (Debye)
 q only:       13.604       8.254      -3.643
   full:       13.661       8.187      -3.939      41.700

 projected vibrational frequencies (cm⁻¹)
eigval :       -0.00    -0.00    -0.00     0.00     0.00     0.00
eigval :      512.36   542.44   665.87   973.64  1010.06  1240.50
eigval :     1394.58  1455.10  1718.36  2347.53  2990.21  3027.51

   temp. (K)  partition function   enthalpy   heat capacity  entropy
                                   cal/mol     cal/K/mol   cal/K/mol   J/K/mol
 298.15  VIB   1.25                  403.450      4.461      1.804
         ROT  0.959E+04              888.752      2.981     21.201
         INT  0.120E+05             1292.202      7.442     23.005
         TR   0.273E+27             1481.254      4.968     37.189
         TOT                        2773.4563    12.4102    60.1931   251.8478

       T/K    H(0)-H(T)+PV         H(T)/Eh          T*S/Eh         G(T)/Eh
   ------------------------------------------------------------------------
    298.15    0.441978E-02    0.451492E-01    0.285997E-01    0.165495E-01
   ------------------------------------------------------------------------

         :::::::::::::::::::::::::::::::::::::::::::::::::::::
         ::                  THERMODYNAMIC                  ::
         :::::::::::::::::::::::::::::::::::::::::::::::::::::
         :: total free energy         -10.004750251101 Eh   ::
         ::.................................................::
         :: total energy              -10.021299776334 Eh   ::
         :: zero point energy           0.040729413319 Eh   ::
         :: G(RRHO) w/o ZPVE           -0.024179888086 Eh   ::
         :: G(RRHO) contrib.            0.016549525233 Eh   ::
         :::::::::::::::::::::::::::::::::::::::::::::::::::::

           -------------------------------------------------
          | TOTAL ENERGY              -10.021299776334 Eh   |
          | TOTAL ENTHALPY             -9.976150579037 Eh   |
          | TOTAL FREE ENERGY         -10.004750251101 Eh   |
          | GRADIENT NORM               0.000487488060 Eh/α |
          | HOMO-LUMO GAP               4.832627916284 eV   |
           -------------------------------------------------

 * finished run on 2025/10/18 at 02:31:59.102
