                         Program Version 5.0.4 -  RELEASE  -
|  1> !OPT PBE D3BJ def2-TZVP CPCM(water)
|  2>
|  3> *xyz -1 1
|  4> C     -6.320958   -3.546488    2.042860
|  5> C     -6.002477   -4.021951    0.755411
|  6> O     -9.379714   -5.321527    2.924900
|  7> H     -7.635288   -3.574428    3.752392
|  8> C     -6.903922   -4.972822    0.240816
|  9> O     -4.980161   -3.624213    0.106552
| 10> C     -8.032560   -5.420423    0.941757
| 11> H     -9.847623   -5.970252    2.376807
| 12> C     -8.292321   -4.914254    2.206168
| 13> H     -8.676217   -6.154566    0.474370
| 14> C     -7.442961   -3.977171    2.765560
| 15> H     -5.660412   -2.808031    2.495438
| 16> H     -6.708965   -5.376871   -0.751884
| 17> *
| 18>
| 19>                          ****END OF INPUT****
 Total Charge           Charge          ....   -1
 Multiplicity           Mult            ....    1
 Number of Electrons    NEL             ....   58
Dispersion correction           -0.012765357
FINAL SINGLE POINT ENERGY      -381.930924557422
Dispersion correction            ... done
Dispersion correction           -0.012674947
FINAL SINGLE POINT ENERGY      -381.934420745307
Dispersion correction            ... done
Dispersion correction           -0.012655261
FINAL SINGLE POINT ENERGY      -381.934700895916
Dispersion correction            ... done
FINAL SINGLE POINT ENERGY      -381.934736381375
Dispersion correction            ... done
Dispersion correction           -0.012656415
FINAL SINGLE POINT ENERGY      -381.934748604428
Dispersion correction            ... done
Dispersion correction           -0.012657708
FINAL SINGLE POINT ENERGY      -381.934750769283
Dispersion correction            ... done
                    ***********************HURRAY********************

CARTESIAN COORDINATES (ANGSTROEM)
---------------------------------
  C     -6.312720   -3.534222    2.055969
  C     -5.977215   -4.010825    0.741457
  O     -9.408947   -5.328836    2.946885
  H     -7.650269   -3.581562    3.759030
  C     -6.898746   -4.981768    0.218708
  O     -4.935653   -3.600635    0.085365
  C     -8.021754   -5.420472    0.926345
  H     -9.896611   -5.985821    2.417900
  C     -8.301493   -4.921941    2.203522
  H     -8.692982   -6.162828    0.480154
  C     -7.435527   -3.974614    2.760902
  H     -5.650750   -2.792141    2.513396
  H     -6.700911   -5.387333   -0.778485

 Multiplicity           Mult            ....    1
 Number of Electrons    NEL             ....   58
 Basis Dimension        Dim             ....  278

ORBITAL ENERGIES
----------------

  NO   OCC          E(Eh)            E(eV)
   0   2.0000     -18.759274      -510.4658
   1   2.0000     -18.652858      -507.5701
   2   2.0000      -9.910438      -269.6767
   3   2.0000      -9.895741      -269.2768
   4   2.0000      -9.865146      -268.4443
   5   2.0000      -9.863248      -268.3926
   6   2.0000      -9.851066      -268.0611
   7   2.0000      -9.851050      -268.0607
   8   2.0000      -0.943771       -25.6813
   9   2.0000      -0.849653       -23.1202
  10   2.0000      -0.733439       -19.9579
  11   2.0000      -0.649483       -17.6733
  12   2.0000      -0.614266       -16.7150
  13   2.0000      -0.531947       -14.4750
  14   2.0000      -0.502594       -13.6763
  15   2.0000      -0.464276       -12.6336
  16   2.0000      -0.402603       -10.9554
  17   2.0000      -0.381547       -10.3824
  18   2.0000      -0.356335        -9.6964
  19   2.0000      -0.346532        -9.4296
  20   2.0000      -0.342542        -9.3211
  21   2.0000      -0.323332        -8.7983
  22   2.0000      -0.298409        -8.1201
  23   2.0000      -0.297279        -8.0894
  24   2.0000      -0.273989        -7.4556
  25   2.0000      -0.227547        -6.1919
  26   2.0000      -0.208712        -5.6793
  27   2.0000      -0.157461        -4.2847
  28   2.0000      -0.129327        -3.5192
  29   0.0000      -0.022040        -0.5997
  30   0.0000       0.020582         0.5601
  31   0.0000       0.034052         0.9266
  32   0.0000       0.053658         1.4601
  33   0.0000       0.074529         2.0280

MULLIKEN ATOMIC CHARGES
-----------------------
   0 C :   -0.263804
   1 C :    0.192429
   2 O :   -0.439588
   3 H :    0.104177
   4 C :   -0.277794
   5 O :   -0.641338
   6 C :   -0.250579
   7 H :    0.343062
   8 C :    0.208995
   9 H :    0.122647
  10 C :   -0.249949
  11 H :    0.074512
  12 H :    0.077230
Sum of atomic charges:   -1.0000000

LOEWDIN ATOMIC CHARGES
----------------------
   0 C :   -0.194694
   1 C :   -0.449467
   2 O :    0.018647
   3 H :    0.143812
   4 C :   -0.196436
   5 O :   -0.218042
   6 C :   -0.194494
   7 H :    0.197616
   8 C :   -0.332148
   9 H :    0.145973
  10 C :   -0.185424
  11 H :    0.132407
  12 H :    0.132249

  Mayer bond orders larger than 0.100000
B(  0-C ,  1-C ) :   1.1922 B(  0-C , 10-C ) :   1.3760 B(  0-C , 11-H ) :   0.9849
B(  1-C ,  4-C ) :   1.1969 B(  1-C ,  5-O ) :   1.7047 B(  2-O ,  7-H ) :   0.8687
B(  2-O ,  8-C ) :   1.0820 B(  3-H , 10-C ) :   0.9698 B(  4-C ,  6-C ) :   1.3186
B(  4-C , 12-H ) :   0.9709 B(  6-C ,  8-C ) :   1.3221 B(  6-C ,  9-H ) :   0.9553
B(  8-C , 10-C ) :   1.3596

Dispersion correction           -0.012658066
FINAL SINGLE POINT ENERGY      -381.934751200856

DIPOLE MOMENT
-------------
                                X             Y             Z
Electronic contribution:     -0.52208      -0.14955       0.42440
Nuclear contribution   :     -2.48705      -1.38998       0.82448
                        -----------------------------------------
Total Dipole Moment    :     -3.00914      -1.53953       1.24888
                        -----------------------------------------
Magnitude (a.u.)       :      3.60344
Magnitude (Debye)      :      9.15922

Rotational constants in cm-1:     0.188816     0.049689     0.039337
Rotational constants in MHz :  5660.572059  1489.639117  1179.295670

                             ****ORCA TERMINATED NORMALLY****
TOTAL RUN TIME: 0 days 0 hours 5 minutes 31 seconds 726 msec
