   * xtb version 6.7.1 (edcfbbe) compiled by 'albert@albert-system' on 2024-07-22

   ID    Z sym.   atoms
    1    6 C      1-6
    2    8 O      7, 13
    3    1 H      8-10, 12, 15
    4    7 N      11, 14

          program call               : xtb xyz.xyz --charge -1 --ohess
          :  Hamiltonian                  GFN2-xTB          :
 * total energy  :   -29.3797722 Eh     change       -0.3001048E-09 Eh
 * total energy  :   -29.4482672 Eh     change       -0.6849506E-01 Eh
 * total energy  :   -29.4547927 Eh     change       -0.6525490E-02 Eh
 * total energy  :   -29.4562717 Eh     change       -0.1479015E-02 Eh
 * total energy  :   -29.4564217 Eh     change       -0.1499205E-03 Eh
 * total energy  :   -29.4565051 Eh     change       -0.8348057E-04 Eh
 * total energy  :   -29.4566499 Eh     change       -0.1447772E-03 Eh
 * total energy  :   -29.4569192 Eh     change       -0.2693047E-03 Eh
 * total energy  :   -29.4574804 Eh     change       -0.5611365E-03 Eh
 * total energy  :   -29.4585865 Eh     change       -0.1106138E-02 Eh
 * total energy  :   -29.4979388 Eh     change       -0.5084392E-02 Eh
 * total energy  :   -29.4985608 Eh     change       -0.6219357E-03 Eh
 * total energy  :   -29.4993460 Eh     change       -0.7852119E-03 Eh
 * total energy  :   -29.5006723 Eh     change       -0.1326369E-02 Eh
 * total energy  :   -29.5010087 Eh     change       -0.3363857E-03 Eh
 * total energy  :   -29.5013320 Eh     change       -0.3232206E-03 Eh
 * total energy  :   -29.5013780 Eh     change       -0.4608859E-04 Eh
 * total energy  :   -29.5013972 Eh     change       -0.1915414E-04 Eh
 * total energy  :   -29.5013976 Eh     change       -0.4113354E-06 Eh
   *** GEOMETRY OPTIMIZATION CONVERGED AFTER 27 ITERATIONS ***

 final structure:
================
15
 xtb: 6.7.1 (edcfbbe)
C           -2.04655275642394       -2.82024092877232        1.56041915513036
C           -2.54205241733801       -2.17135328379686        0.37641569345752
C           -3.71287208439791       -2.52898717332642       -0.20144240937366
C           -4.50750335475354       -3.56750286915027        0.34082295104294
C           -4.05019886004612       -4.22765059896258        1.50352064223828
C           -2.87907599456611       -3.87399914268054        2.08592529482013
O           -6.37357455023109       -4.84426554800288        0.25237918097354
H           -2.53696638643857       -4.38777943655710        2.97924623546728
H           -1.93461498311774       -1.37864254809576       -0.03669693193545
H           -4.07496819401955       -2.03397468066689       -1.09202065115309
N           -5.69408681572655       -3.92588897032443       -0.24746390052269
H           -4.66490893934709       -5.02034457339824        1.90878329942516
O           -6.07530209232528       -3.32906944302310       -1.27324613312423
N           -0.91544612768602       -2.42870000458052        2.06850747702661
H           -0.67033444358252       -2.96288079866207        2.90583209652734

          :  Hamiltonian                  GFN2-xTB          :
         :: gradient norm              0.000268091803 Eh/a0 ::
         :: HOMO-LUMO gap              1.838787160816 eV    ::
         :: SCC energy               -29.859754002753 Eh    ::
         :: -> dispersion             -0.013796961827 Eh    ::
         :: repulsion energy           0.358356394090 Eh    ::

    * Orbital Energies and Occupations

         #    Occupation            Energy/Eh            Energy/eV
      -------------------------------------------------------------
         1        2.0000           -0.5728007             -15.5867
       ...           ...                  ...                  ...
        14        2.0000           -0.3505612              -9.5393
        15        2.0000           -0.3422120              -9.3121
        16        2.0000           -0.3391381              -9.2284
        17        2.0000           -0.3373391              -9.1795
        18        2.0000           -0.3084346              -8.3929
        19        2.0000           -0.2880296              -7.8377
        20        2.0000           -0.2826704              -7.6919
        21        2.0000           -0.2805176              -7.6333
        22        2.0000           -0.2673399              -7.2747
        23        2.0000           -0.2591104              -7.0508
        24        2.0000           -0.2588336              -7.0432
        25        2.0000           -0.2151126              -5.8535
        26        2.0000           -0.2011592              -5.4738 (HOMO)
        27                         -0.1335847              -3.6350 (LUMO)
        28                         -0.0751741              -2.0456
        29                         -0.0345281              -0.9396
        30                          0.0636695               1.7325
        31                          0.1934867               5.2650
        32                          0.2432098               6.6181
        33                          0.2697054               7.3391
        34                          0.2928810               7.9697
        35                          0.3029045               8.2425
        36                          0.3372967               9.1783
        37                          0.3585005               9.7553
       ...                                ...                  ...
        45                          0.8322225              22.6459
      -------------------------------------------------------------
                  HL-Gap            0.0675744 Eh            1.8388 eV

     #   Z          covCN         q      C6AA      α(0)
     1   6 C        2.887     0.104    25.698     8.311
     2   6 C        2.921    -0.067    29.658     8.931
     3   6 C        2.910    -0.038    28.949     8.823
     4   6 C        2.912    -0.031    28.769     8.795
     5   6 C        2.910    -0.037    28.912     8.817
     6   6 C        2.914    -0.077    29.930     8.971
     7   8 O        0.930    -0.512    24.006     6.571
     8   1 H        0.925    -0.011     3.249     2.819
     9   1 H        0.926     0.013     2.834     2.633
    10   1 H        0.925     0.029     2.605     2.524
    11   7 N        2.763     0.471    14.359     5.628
    12   1 H        0.925     0.025     2.652     2.547
    13   8 O        0.930    -0.510    23.974     6.567
    14   7 N        1.784    -0.437    32.413     8.432
    15   1 H        0.860     0.077     2.024     2.229

Wiberg/Mayer (AO) data.
largest (>0.10) Wiberg bond orders for each atom

     #   Z sym  total        # sym  WBO       # sym  WBO       # sym  WBO
 ---------------------------------------------------------------------------
     1   6 C    3.981 --    14 N    1.597     2 C    1.156     6 C    1.149
     2   6 C    3.988 --     3 C    1.648     1 C    1.156     9 H    0.970
     3   6 C    3.992 --     2 C    1.648     4 C    1.234    10 H    0.966
     4   6 C    3.943 --     5 C    1.243     3 C    1.234    11 N    1.149
     5   6 C    3.992 --     6 C    1.636     4 C    1.243    12 H    0.965
     6   6 C    3.983 --     5 C    1.636     1 C    1.149     8 H    0.968
     7   8 O    1.736 --    11 N    1.309    13 O    0.241
     8   1 H    0.999 --     6 C    0.968
     9   1 H    0.999 --     2 C    0.970
    10   1 H    0.998 --     3 C    0.966
    11   7 N    3.849 --    13 O    1.311     7 O    1.309     4 C    1.149
    12   1 H    0.999 --     5 C    0.965
    13   8 O    1.738 --    11 N    1.311     7 O    0.241
    14   7 N    2.792 --     1 C    1.597    15 H    0.968
    15   1 H    0.993 --    14 N    0.968
 ---------------------------------------------------------------------------

molecular dipole:
                 x           y           z       tot (Debye)
 q only:        8.319       6.646      -0.706
   full:        8.129       6.340      -0.510      26.233

 projected vibrational frequencies (cm⁻¹)
eigval :       -0.00    -0.00     0.00     0.00     0.00     0.00
eigval :       92.49    93.44   211.10   247.14   352.75   374.70
eigval :      400.90   430.44   547.93   603.48   618.03   650.47
eigval :      701.02   745.74   781.55   808.25   837.24   856.95
eigval :      914.80   920.12   973.00  1100.37  1145.54  1171.63
eigval :     1200.30  1282.59  1349.89  1377.33  1412.99  1474.37
eigval :     1508.95  1536.30  1565.58  1623.68  3007.37  3063.26
eigval :     3063.93  3077.42  3260.17

   temp. (K)  partition function   enthalpy   heat capacity  entropy
                                   cal/mol     cal/K/mol   cal/K/mol   J/K/mol
 298.15  VIB   51.3                 3279.865     24.585     18.725
         ROT  0.560E+06              888.752      2.981     29.284
         INT  0.287E+08             4168.617     27.566     48.009
         TR   0.155E+28             1481.254      4.968     40.640
         TOT                        5649.8709    32.5344    88.6490   370.9076

       T/K    H(0)-H(T)+PV         H(T)/Eh          T*S/Eh         G(T)/Eh
   ------------------------------------------------------------------------
    298.15    0.900364E-02    0.112394E+00    0.421200E-01    0.702742E-01
   ------------------------------------------------------------------------

         :::::::::::::::::::::::::::::::::::::::::::::::::::::
         ::                  THERMODYNAMIC                  ::
         :::::::::::::::::::::::::::::::::::::::::::::::::::::
         :: total free energy         -29.431123458525 Eh   ::
         ::.................................................::
         :: total energy              -29.501397608660 Eh   ::
         :: zero point energy           0.103390528673 Eh   ::
         :: G(RRHO) w/o ZPVE           -0.033116378538 Eh   ::
         :: G(RRHO) contrib.            0.070274150135 Eh   ::
         :::::::::::::::::::::::::::::::::::::::::::::::::::::

           -------------------------------------------------
          | TOTAL ENERGY              -29.501397608660 Eh   |
          | TOTAL ENTHALPY            -29.389003437545 Eh   |
          | TOTAL FREE ENERGY         -29.431123458525 Eh   |
          | GRADIENT NORM               0.000268173812 Eh/α |
          | HOMO-LUMO GAP               1.838794360301 eV   |
           -------------------------------------------------

 * finished run on 2025/10/18 at 04:56:41.940
