                         Program Version 5.0.4 -  RELEASE  -
|  1> !OPT PBE D3BJ CPCM(water)
|  2>
|  3> *xyz -1 1
|  4> C     -3.691047   -3.973273   -2.681870
|  5> C     -4.268314   -2.637389   -3.179186
|  6> O     -3.308160   -1.731517   -3.115055
|  7> H     -6.197484   -2.945431   -2.218604
|  8> C     -5.402015   -2.190939   -2.240802
|  9> H     -4.747345   -2.858607   -4.143619
| 10> H     -5.854831   -1.250116   -2.578986
| 11> H     -5.060765   -2.046897   -1.207183
| 12> H     -3.281661   -3.902541   -1.665523
| 13> H     -4.471977   -4.742944   -2.665175
| 14> H     -2.891672   -4.334652   -3.341391
| 15> *
| 16>
| 17>                          ****END OF INPUT****
 Total Charge           Charge          ....   -1
 Multiplicity           Mult            ....    1
 Number of Electrons    NEL             ....   34
Dispersion correction           -0.006695069
FINAL SINGLE POINT ENERGY      -193.429552213259
Dispersion correction            ... done
Dispersion correction           -0.006618792
FINAL SINGLE POINT ENERGY      -193.439502014618
Dispersion correction            ... done
Dispersion correction           -0.006608196
FINAL SINGLE POINT ENERGY      -193.440629857857
Dispersion correction            ... done
FINAL SINGLE POINT ENERGY      -193.440845440611
Dispersion correction            ... done
Dispersion correction           -0.006608964
FINAL SINGLE POINT ENERGY      -193.440872522374
Dispersion correction            ... done
Dispersion correction           -0.006609807
FINAL SINGLE POINT ENERGY      -193.440878380265
Dispersion correction            ... done
                    ***********************HURRAY********************

CARTESIAN COORDINATES (ANGSTROEM)
---------------------------------
  C     -3.706143   -4.003373   -2.674550
  C     -4.224429   -2.603998   -3.145013
  O     -3.272209   -1.676303   -3.203186
  H     -6.264641   -2.947116   -2.209594
  C     -5.431024   -2.206898   -2.230089
  H     -4.748068   -2.854541   -4.165770
  H     -5.836148   -1.228788   -2.569331
  H     -5.059927   -2.059346   -1.189344
  H     -3.288297   -3.905788   -1.645722
  H     -4.476081   -4.809925   -2.670717
  H     -2.868302   -4.318232   -3.334078

 Multiplicity           Mult            ....    1
 Number of Electrons    NEL             ....   34
 Basis Dimension        Dim             ....   91

ORBITAL ENERGIES
----------------

  NO   OCC          E(Eh)            E(eV)
   0   2.0000     -18.597404      -506.0611
   1   2.0000      -9.886913      -269.0366
   2   2.0000      -9.853436      -268.1256
   3   2.0000      -9.853351      -268.1233
   4   2.0000      -0.774881       -21.0856
   5   2.0000      -0.615031       -16.7358
   6   2.0000      -0.570925       -15.5357
   7   2.0000      -0.439130       -11.9493
   8   2.0000      -0.361382        -9.8337
   9   2.0000      -0.333890        -9.0856
  10   2.0000      -0.329746        -8.9728
  11   2.0000      -0.304815        -8.2944
  12   2.0000      -0.261646        -7.1197
  13   2.0000      -0.257897        -7.0177
  14   2.0000      -0.242135        -6.5888
  15   2.0000      -0.100139        -2.7249
  16   2.0000      -0.098753        -2.6872
  17   0.0000       0.057789         1.5725
  18   0.0000       0.094124         2.5612
  19   0.0000       0.102764         2.7963
  20   0.0000       0.113757         3.0955
  21   0.0000       0.130742         3.5577

MULLIKEN ATOMIC CHARGES
-----------------------
   0 C :   -0.026204
   1 C :    0.045806
   2 O :   -0.646339
   3 H :   -0.030578
   4 C :   -0.026940
   5 H :   -0.166549
   6 H :   -0.025655
   7 H :   -0.033409
   8 H :   -0.033760
   9 H :   -0.030846
  10 H :   -0.025525
Sum of atomic charges:   -1.0000000

LOEWDIN ATOMIC CHARGES
----------------------
   0 C :   -0.128399
   1 C :   -0.034829
   2 O :   -0.612064
   3 H :   -0.000897
   4 C :   -0.128671
   5 H :   -0.089197
   6 H :    0.000049
   7 H :   -0.002533
   8 H :   -0.002639
   9 H :   -0.001023
  10 H :    0.000204

  Mayer bond orders larger than 0.100000
B(  0-C ,  1-C ) :   0.9817 B(  0-C ,  8-H ) :   0.9487 B(  0-C ,  9-H ) :   0.9357
B(  0-C , 10-H ) :   0.9574 B(  1-C ,  2-O ) :   1.5635 B(  1-C ,  4-C ) :   0.9815
B(  1-C ,  5-H ) :   0.8122 B(  3-H ,  4-C ) :   0.9359 B(  4-C ,  6-H ) :   0.9574
B(  4-C ,  7-H ) :   0.9487

Dispersion correction           -0.006609851
FINAL SINGLE POINT ENERGY      -193.440879181247

DIPOLE MOMENT
-------------
                                X             Y             Z
Electronic contribution:      2.23937       2.42158      -1.10916
Nuclear contribution   :     -3.21531      -3.51608       1.74320
                        -----------------------------------------
Total Dipole Moment    :     -0.97593      -1.09450       0.63405
                        -----------------------------------------
Magnitude (a.u.)       :      1.59762
Magnitude (Debye)      :      4.06082

Rotational constants in cm-1:     0.298450     0.271377     0.161979
Rotational constants in MHz :  8947.308433  8135.691568  4856.010975

                             ****ORCA TERMINATED NORMALLY****
TOTAL RUN TIME: 0 days 0 hours 1 minutes 46 seconds 84 msec
