   * xtb version 6.7.1 (edcfbbe) compiled by 'albert@albert-system' on 2024-07-22

   ID    Z sym.   atoms
    1    6 C      1
    2    8 O      2, 3
    3    1 H      4

          program call               : xtb xyz.xyz --alpb water --charge -1 --ohess
      * Solvation model:               ALPB
        Solvent                        water
        Solvent mass                       1.8000E+01 g/mol
          :  Hamiltonian                  GFN2-xTB          :
 * total energy  :   -11.1054786 Eh     change       -0.6227907E-11 Eh
 * total energy  :   -11.1075539 Eh     change       -0.2075371E-02 Eh
 * total energy  :   -11.1077658 Eh     change       -0.2118565E-03 Eh
 * total energy  :   -11.1078066 Eh     change       -0.4085361E-04 Eh
 * total energy  :   -11.1078304 Eh     change       -0.2378301E-04 Eh
 * total energy  :   -11.1078327 Eh     change       -0.2270846E-05 Eh
   *** GEOMETRY OPTIMIZATION CONVERGED AFTER 6 ITERATIONS ***

 final structure:
================
4
 xtb: 6.7.1 (edcfbbe)
C           -3.13769933324394        2.37447832410609       -0.00000982003605
O           -3.33130220714631        3.58741853594627        0.00000120658958
O           -2.09041974997033        1.73266701330960       -0.00000658124040
H           -4.11322370963943        1.72164012663804       -0.00002580531312

          :  Hamiltonian                  GFN2-xTB          :
         :: gradient norm              0.000316054392 Eh/a0 ::
         :: HOMO-LUMO gap              5.411261953829 eV    ::
         :: SCC energy               -11.179553408419 Eh    ::
         :: -> dispersion             -0.001512349901 Eh    ::
         :: -> Gsolv                  -0.109799934789 Eh    ::
         :: repulsion energy           0.071720708086 Eh    ::

    * Orbital Energies and Occupations

         #    Occupation            Energy/Eh            Energy/eV
      -------------------------------------------------------------
         1        2.0000           -0.6850319             -18.6407
         2        2.0000           -0.6755773             -18.3834
         3        2.0000           -0.5851477             -15.9227
         4        2.0000           -0.5407774             -14.7153
         5        2.0000           -0.5251207             -14.2893
         6        2.0000           -0.5069623             -13.7951
         7        2.0000           -0.4159191             -11.3177
         8        2.0000           -0.4020509             -10.9404
         9        2.0000           -0.3811741             -10.3723 (HOMO)
        10                         -0.1823139              -4.9610 (LUMO)
        11                          0.0948847               2.5819
        12                          0.4218568              11.4793
        13                          0.6724430              18.2981
      -------------------------------------------------------------
                  HL-Gap            0.1988601 Eh            5.4113 eV

     #   Z          covCN         q      C6AA      α(0)
     1   6 C        2.613     0.411    20.095     7.331
     2   8 O        0.856    -0.612    26.414     6.891
     3   8 O        0.856    -0.612    26.416     6.891
     4   1 H        0.902    -0.187     9.875     4.916

Wiberg/Mayer (AO) data.
largest (>0.10) Wiberg bond orders for each atom

     #   Z sym  total        # sym  WBO       # sym  WBO       # sym  WBO
 ---------------------------------------------------------------------------
     1   6 C    3.940 --     2 O    1.544     3 O    1.544     4 H    0.852
     2   8 O    1.833 --     1 C    1.544     3 O    0.233
     3   8 O    1.833 --     1 C    1.544     2 O    0.233
     4   1 H    0.965 --     1 C    0.852
 ---------------------------------------------------------------------------

molecular dipole:
                 x           y           z       tot (Debye)
 q only:        5.286      -4.917      -0.000
   full:        5.089      -5.050      -0.000      18.221

 projected vibrational frequencies (cm⁻¹)
eigval :       -0.00    -0.00    -0.00     0.00     0.00     0.00
eigval :      686.92   937.48  1213.86  1458.78  1775.32  2001.28

   temp. (K)  partition function   enthalpy   heat capacity  entropy
                                   cal/mol     cal/K/mol   cal/K/mol   J/K/mol
 298.15  VIB   1.05                  118.392      1.627      0.500
         ROT  0.347E+04              888.752      2.981     19.182
         INT  0.366E+04             1007.144      4.608     19.682
         TR   0.292E+27             1481.254      4.968     37.322
         TOT                        2488.3982     9.5765    57.0045   238.5069

       T/K    H(0)-H(T)+PV         H(T)/Eh          T*S/Eh         G(T)/Eh
   ------------------------------------------------------------------------
    298.15    0.396551E-02    0.223586E-01    0.270847E-01   -0.472608E-02
   ------------------------------------------------------------------------

         :::::::::::::::::::::::::::::::::::::::::::::::::::::
         ::                  THERMODYNAMIC                  ::
         :::::::::::::::::::::::::::::::::::::::::::::::::::::
         :: total free energy         -11.112558783567 Eh   ::
         ::.................................................::
         :: total energy              -11.107832700111 Eh   ::
         :: zero point energy           0.018393091892 Eh   ::
         :: G(RRHO) w/o ZPVE           -0.023119175348 Eh   ::
         :: G(RRHO) contrib.           -0.004726083456 Eh   ::
         :::::::::::::::::::::::::::::::::::::::::::::::::::::

           -------------------------------------------------
          | TOTAL ENERGY              -11.107832700111 Eh   |
          | TOTAL ENTHALPY            -11.085474093227 Eh   |
          | TOTAL FREE ENERGY         -11.112558783567 Eh   |
          | GRADIENT NORM               0.000316057664 Eh/α |
          | HOMO-LUMO GAP               5.411260088480 eV   |
           -------------------------------------------------

 * finished run on 2025/10/19 at 03:21:53.712
