   * xtb version 6.7.1 (edcfbbe) compiled by 'albert@albert-system' on 2024-07-22

   ID    Z sym.   atoms
    1    6 C      1, 2, 4, 6, 8, 10
    2   17 Cl     3
    3    1 H      5, 7, 9, 11, 14, 15
    4    8 O      12, 13

          program call               : xtb tb_lite_results_shiftn0p15_gp689_b0_rot180_complex.xyz --ohess --chrg -1 --alpb water
      * Solvation model:               ALPB
        Solvent                        water
        Solvent mass                       1.8000E+01 g/mol
          :  Hamiltonian                  GFN2-xTB          :
 * total energy  :   -28.8913153 Eh     change       -0.1604661E-08 Eh
 * total energy  :   -28.8947978 Eh     change       -0.3482482E-02 Eh
 * total energy  :   -28.8950831 Eh     change       -0.2853211E-03 Eh
 * total energy  :   -28.8951503 Eh     change       -0.6719559E-04 Eh
 * total energy  :   -28.8952300 Eh     change       -0.7973246E-04 Eh
 * total energy  :   -28.8952633 Eh     change       -0.3325668E-04 Eh
 * total energy  :   -28.8952983 Eh     change       -0.3496302E-04 Eh
 * total energy  :   -28.8953354 Eh     change       -0.3708863E-04 Eh
 * total energy  :   -28.8953644 Eh     change       -0.2902728E-04 Eh
 * total energy  :   -28.8953867 Eh     change       -0.2232997E-04 Eh
 * total energy  :   -28.8954051 Eh     change       -0.1838246E-04 Eh
 * total energy  :   -28.8954204 Eh     change       -0.1531493E-04 Eh
 * total energy  :   -28.8954272 Eh     change       -0.6754658E-05 Eh
 * total energy  :   -28.8954361 Eh     change       -0.8930820E-05 Eh
 * total energy  :   -28.8954461 Eh     change       -0.1001760E-04 Eh
 * total energy  :   -28.8954543 Eh     change       -0.8140007E-05 Eh
 * total energy  :   -28.8954624 Eh     change       -0.8114170E-05 Eh
 * total energy  :   -28.8954684 Eh     change       -0.6080861E-05 Eh
 * total energy  :   -28.8954711 Eh     change       -0.2615139E-05 Eh
   *** GEOMETRY OPTIMIZATION CONVERGED AFTER 19 ITERATIONS ***

 final structure:
================
15
 xtb: 6.7.1 (edcfbbe)
C           -4.19578076392125       -1.82666965308682        1.92869060559014
C           -3.79585793707843       -2.36476310132780        0.72815640376033
Cl          -7.45088481878100       -3.98144964217224        2.75393034894625
C           -5.34125108657819       -2.29159934430317        2.62124433528553
H           -3.64138550427964       -1.02043926574424        2.39021232828390
C           -4.50392069373534       -3.39926610865875        0.13387164809120
H           -2.91303262976638       -1.96976214524555        0.24479611879596
C           -5.63188851564791       -3.89117020486636        0.76889331150183
H           -4.18700339356849       -3.81863715261288       -0.80734930693513
C           -6.02530168666534       -3.34696676958238        1.96949417625936
H           -6.21100996242532       -4.69510504285600        0.34003407518466
O           -5.73337859140403       -1.80211674890550        3.74638274738540
O           -4.31427307241894        0.18271855976171        4.79338457180725
H           -4.82909586433772       -0.56763386386688        4.39045359190956
H           -4.84502279993721        0.47360755001850        5.54167519977210

          :  Hamiltonian                  GFN2-xTB          :
         :: gradient norm              0.000377210669 Eh/a0 ::
         :: HOMO-LUMO gap              3.500421612154 eV    ::
         :: SCC energy               -29.220619201384 Eh    ::
         :: -> dispersion             -0.013071952446 Eh    ::
         :: -> Gsolv                  -0.099464737849 Eh    ::
         :: repulsion energy           0.325148139177 Eh    ::

    * Orbital Energies and Occupations

         #    Occupation            Energy/Eh            Energy/eV
      -------------------------------------------------------------
         1        2.0000           -1.0497966             -28.5664
       ...           ...                  ...                  ...
        13        2.0000           -0.4834499             -13.1553
        14        2.0000           -0.4821204             -13.1192
        15        2.0000           -0.4689704             -12.7613
        16        2.0000           -0.4627347             -12.5917
        17        2.0000           -0.4359154             -11.8619
        18        2.0000           -0.4276323             -11.6365
        19        2.0000           -0.4274830             -11.6324
        20        2.0000           -0.4238656             -11.5340
        21        2.0000           -0.4170577             -11.3487
        22        2.0000           -0.4048192             -11.0157
        23        2.0000           -0.3819004             -10.3920
        24        2.0000           -0.3534877              -9.6189
        25        2.0000           -0.3358267              -9.1383 (HOMO)
        26                         -0.2071886              -5.6379 (LUMO)
        27                         -0.1862951              -5.0693
        28                         -0.1296205              -3.5272
        29                         -0.0730301              -1.9872
        30                          0.0324325               0.8825
        31                          0.0354448               0.9645
        32                          0.0366998               0.9987
        33                          0.0488126               1.3283
        34                          0.1146499               3.1198
        35                          0.1372334               3.7343
        36                          0.1536173               4.1801
       ...                                ...                  ...
        47                          0.6892493              18.7554
      -------------------------------------------------------------
                  HL-Gap            0.1286381 Eh            3.5004 eV

     #   Z          covCN         q      C6AA      α(0)
     1   6 C        2.924    -0.096    30.408     9.043
     2   6 C        2.915    -0.048    29.192     8.860
     3  17 Cl       0.964    -0.272   107.812    15.885
     4   6 C        2.865     0.165    24.447     8.105
     5   1 H        0.925     0.014     2.829     2.630
     6   6 C        2.922    -0.071    29.772     8.948
     7   1 H        0.925     0.026     2.641     2.541
     8   6 C        2.952    -0.055    29.372     8.889
     9   1 H        0.926     0.032     2.551     2.498
    10   6 C        2.893     0.026    27.415     8.585
    11   1 H        0.926     0.038     2.476     2.461
    12   8 O        0.857    -0.694    28.537     7.162
    13   8 O        1.605    -0.709    27.948     7.135
    14   1 H        0.801     0.301     0.717     1.331
    15   1 H        0.805     0.341     0.608     1.225

Wiberg/Mayer (AO) data.
largest (>0.10) Wiberg bond orders for each atom

     #   Z sym  total        # sym  WBO       # sym  WBO       # sym  WBO
 ---------------------------------------------------------------------------
     1   6 C    3.983 --     2 C    1.495     4 C    1.254     5 H    0.969
     2   6 C    3.991 --     1 C    1.495     6 C    1.402     7 H    0.970
     3  17 Cl   1.017 --    10 C    0.905
     4   6 C    3.967 --    12 O    1.335     1 C    1.254    10 C    1.250
     5   1 H    1.000 --     1 C    0.969
     6   6 C    3.982 --     8 C    1.414     2 C    1.402     9 H    0.971
     7   1 H    0.999 --     2 C    0.970
     8   6 C    3.987 --    10 C    1.450     6 C    1.414    11 H    0.968
     9   1 H    0.999 --     6 C    0.971
    10   6 C    3.861 --     8 C    1.450     4 C    1.250     3 Cl   0.905
    11   1 H    0.998 --     8 C    0.968
    12   8 O    1.743 --     4 C    1.335
    13   8 O    1.748 --    15 H    0.883    14 H    0.821
    14   1 H    0.909 --    13 O    0.821
    15   1 H    0.883 --    13 O    0.883
 ---------------------------------------------------------------------------

molecular dipole:
                 x           y           z       tot (Debye)
 q only:       10.636       3.977      -6.219
   full:       10.634       4.096      -6.088      32.839

 projected vibrational frequencies (cm⁻¹)
eigval :       -0.00    -0.00    -0.00     0.00     0.00     0.00
eigval :       38.22    63.40   137.05   150.77   154.12   243.25
eigval :      276.24   350.24   397.85   503.81   515.21   531.34
eigval :      557.17   654.16   658.08   762.80   793.76   842.29
eigval :      845.69   879.68   907.56  1000.08  1084.16  1144.01
eigval :     1167.49  1228.97  1301.43  1337.29  1433.42  1485.44
eigval :     1534.10  1541.04  1595.44  2879.03  3049.66  3065.78
eigval :     3075.97  3094.84  3612.95

   temp. (K)  partition function   enthalpy   heat capacity  entropy
                                   cal/mol     cal/K/mol   cal/K/mol   J/K/mol
 298.15  VIB   845.                 4324.664     27.277     26.450
         ROT  0.847E+06              888.752      2.981     30.106
         INT  0.715E+09             5213.417     30.258     56.556
         TR   0.170E+28             1481.254      4.968     40.819
         TOT                        6694.6706    35.2264    97.3747   407.4158

       T/K    H(0)-H(T)+PV         H(T)/Eh          T*S/Eh         G(T)/Eh
   ------------------------------------------------------------------------
    298.15    0.106686E-01    0.112944E+00    0.462659E-01    0.666784E-01
   ------------------------------------------------------------------------

         :::::::::::::::::::::::::::::::::::::::::::::::::::::
         ::                  THERMODYNAMIC                  ::
         :::::::::::::::::::::::::::::::::::::::::::::::::::::
         :: total free energy         -28.828792663308 Eh   ::
         ::.................................................::
         :: total energy              -28.895471062609 Eh   ::
         :: zero point energy           0.102275631310 Eh   ::
         :: G(RRHO) w/o ZPVE           -0.035597232009 Eh   ::
         :: G(RRHO) contrib.            0.066678399301 Eh   ::
         :::::::::::::::::::::::::::::::::::::::::::::::::::::

           -------------------------------------------------
          | TOTAL ENERGY              -28.895471062609 Eh   |
          | TOTAL ENTHALPY            -28.782526794667 Eh   |
          | TOTAL FREE ENERGY         -28.828792663308 Eh   |
          | GRADIENT NORM               0.000376424615 Eh/α |
          | HOMO-LUMO GAP               3.500419984083 eV   |
           -------------------------------------------------

 * finished run on 2025/10/18 at 06:55:26.591
normal termination of xtb
