   * xtb version 6.7.1 (edcfbbe) compiled by 'albert@albert-system' on 2024-07-22

   ID    Z sym.   atoms
    1    6 C      1, 2, 4, 6, 8, 10
    2   17 Cl     3
    3    1 H      5, 7, 9, 11, 14, 15
    4    8 O      12, 13

          program call               : xtb tb_lite_results_shiftn0p1_gp646_b0_rot180_complex.xyz --ohess --chrg -1 --alpb water
      * Solvation model:               ALPB
        Solvent                        water
        Solvent mass                       1.8000E+01 g/mol
          :  Hamiltonian                  GFN2-xTB          :
 * total energy  :   -28.8914844 Eh     change       -0.1393715E-08 Eh
 * total energy  :   -28.8946761 Eh     change       -0.3191769E-02 Eh
 * total energy  :   -28.8949924 Eh     change       -0.3162341E-03 Eh
 * total energy  :   -28.8951122 Eh     change       -0.1197934E-03 Eh
 * total energy  :   -28.8952386 Eh     change       -0.1264614E-03 Eh
 * total energy  :   -28.8952820 Eh     change       -0.4332576E-04 Eh
 * total energy  :   -28.8953203 Eh     change       -0.3837780E-04 Eh
 * total energy  :   -28.8953619 Eh     change       -0.4158454E-04 Eh
 * total energy  :   -28.8953817 Eh     change       -0.1974295E-04 Eh
 * total energy  :   -28.8954088 Eh     change       -0.2709881E-04 Eh
 * total energy  :   -28.8954506 Eh     change       -0.4180395E-04 Eh
 * total energy  :   -28.8954612 Eh     change       -0.1058882E-04 Eh
 * total energy  :   -28.8954657 Eh     change       -0.4547136E-05 Eh
   *** GEOMETRY OPTIMIZATION CONVERGED AFTER 13 ITERATIONS ***

 final structure:
================
15
 xtb: 6.7.1 (edcfbbe)
C           -4.08397556510013       -1.96870848990752        2.05536247631401
C           -3.77039031457723       -2.37310118637393        0.77923404631936
Cl          -7.45088466171998       -3.99238956172176        2.75642935990465
C           -5.23090229687428       -2.44441803557999        2.73822173927246
H           -3.45722625505131       -1.26571931206643        2.58744857263520
C           -4.57243586893143       -3.27458880944188        0.09448268716697
H           -2.88131395551848       -1.97795271528930        0.30764884644863
C           -5.70734375029658       -3.76846823329727        0.71501185368980
H           -4.32175890206998       -3.58991877360264       -0.90552071289284
C           -6.01411667563432       -3.35827182786963        1.99203081056202
H           -6.35845706748567       -4.47083989998661        0.21678646941596
O           -5.54138697269244       -2.07958874106832        3.93429366994159
O           -3.89179317229591       -0.39510545592649        5.15268250079124
H           -4.50584891326377       -1.01722654373061        4.67668849883383
H           -4.20766048170423       -0.38351868808795        6.06165113751392

          :  Hamiltonian                  GFN2-xTB          :
         :: gradient norm              0.000605550548 Eh/a0 ::
         :: HOMO-LUMO gap              3.500868541130 eV    ::
         :: SCC energy               -29.220645840755 Eh    ::
         :: -> dispersion             -0.013081246410 Eh    ::
         :: -> Gsolv                  -0.099469823369 Eh    ::
         :: repulsion energy           0.325180139764 Eh    ::

    * Orbital Energies and Occupations

         #    Occupation            Energy/Eh            Energy/eV
      -------------------------------------------------------------
         1        2.0000           -1.0498032             -28.5666
       ...           ...                  ...                  ...
        13        2.0000           -0.4834650             -13.1558
        14        2.0000           -0.4820994             -13.1186
        15        2.0000           -0.4689576             -12.7610
        16        2.0000           -0.4627422             -12.5919
        17        2.0000           -0.4358941             -11.8613
        18        2.0000           -0.4276166             -11.6360
        19        2.0000           -0.4274916             -11.6326
        20        2.0000           -0.4238277             -11.5329
        21        2.0000           -0.4169931             -11.3470
        22        2.0000           -0.4048211             -11.0157
        23        2.0000           -0.3819016             -10.3921
        24        2.0000           -0.3535056              -9.6194
        25        2.0000           -0.3358623              -9.1393 (HOMO)
        26                         -0.2072075              -5.6384 (LUMO)
        27                         -0.1862999              -5.0695
        28                         -0.1296742              -3.5286
        29                         -0.0730127              -1.9868
        30                          0.0324297               0.8825
        31                          0.0354385               0.9643
        32                          0.0366906               0.9984
        33                          0.0487988               1.3279
        34                          0.1146115               3.1187
        35                          0.1372318               3.7343
        36                          0.1537857               4.1847
       ...                                ...                  ...
        47                          0.6892304              18.7549
      -------------------------------------------------------------
                  HL-Gap            0.1286548 Eh            3.5009 eV

     #   Z          covCN         q      C6AA      α(0)
     1   6 C        2.924    -0.096    30.407     9.043
     2   6 C        2.915    -0.048    29.192     8.860
     3  17 Cl       0.963    -0.272   107.814    15.885
     4   6 C        2.865     0.165    24.449     8.105
     5   1 H        0.925     0.014     2.820     2.626
     6   6 C        2.922    -0.071    29.770     8.948
     7   1 H        0.926     0.026     2.641     2.541
     8   6 C        2.952    -0.055    29.371     8.889
     9   1 H        0.926     0.033     2.551     2.497
    10   6 C        2.893     0.026    27.415     8.585
    11   1 H        0.926     0.038     2.475     2.460
    12   8 O        0.857    -0.694    28.543     7.163
    13   8 O        1.605    -0.709    27.954     7.136
    14   1 H        0.801     0.301     0.717     1.331
    15   1 H        0.805     0.341     0.609     1.226

Wiberg/Mayer (AO) data.
largest (>0.10) Wiberg bond orders for each atom

     #   Z sym  total        # sym  WBO       # sym  WBO       # sym  WBO
 ---------------------------------------------------------------------------
     1   6 C    3.983 --     2 C    1.495     4 C    1.254     5 H    0.969
     2   6 C    3.991 --     1 C    1.495     6 C    1.402     7 H    0.970
     3  17 Cl   1.017 --    10 C    0.904
     4   6 C    3.967 --    12 O    1.335     1 C    1.254    10 C    1.251
     5   1 H    1.000 --     1 C    0.969
     6   6 C    3.982 --     8 C    1.415     2 C    1.402     9 H    0.971
     7   1 H    0.999 --     2 C    0.970
     8   6 C    3.987 --    10 C    1.449     6 C    1.415    11 H    0.968
     9   1 H    0.999 --     6 C    0.971
    10   6 C    3.861 --     8 C    1.449     4 C    1.251     3 Cl   0.904
    11   1 H    0.998 --     8 C    0.968
    12   8 O    1.743 --     4 C    1.335
    13   8 O    1.748 --    15 H    0.883    14 H    0.821
    14   1 H    0.909 --    13 O    0.821
    15   1 H    0.884 --    13 O    0.883
 ---------------------------------------------------------------------------

molecular dipole:
                 x           y           z       tot (Debye)
 q only:       10.433       4.283      -6.440
   full:       10.462       4.357      -6.280      32.933

 projected vibrational frequencies (cm⁻¹)
eigval :       -0.00    -0.00    -0.00     0.00     0.00     0.00
eigval :       34.61    62.14    70.45   138.10   155.15   242.65
eigval :      276.18   350.20   398.37   497.28   515.12   531.21
eigval :      554.16   654.10   658.05   762.95   791.83   843.20
eigval :      845.73   879.85   908.51  1000.21  1084.49  1144.22
eigval :     1167.34  1229.32  1301.65  1337.04  1433.06  1485.33
eigval :     1534.16  1537.79  1595.45  2876.30  3050.27  3067.49
eigval :     3076.56  3094.88  3612.17

   temp. (K)  partition function   enthalpy   heat capacity  entropy
                                   cal/mol     cal/K/mol   cal/K/mol   J/K/mol
 298.15  VIB  0.168E+04             4428.144     27.095     27.770
         ROT  0.845E+06              888.752      2.981     30.101
         INT  0.142E+10             5316.896     30.076     57.871
         TR   0.170E+28             1481.254      4.968     40.819
         TOT                        6798.1502    35.0444    98.6891   412.9153

       T/K    H(0)-H(T)+PV         H(T)/Eh          T*S/Eh         G(T)/Eh
   ------------------------------------------------------------------------
    298.15    0.108335E-01    0.112890E+00    0.468904E-01    0.659996E-01
   ------------------------------------------------------------------------

         :::::::::::::::::::::::::::::::::::::::::::::::::::::
         ::                  THERMODYNAMIC                  ::
         :::::::::::::::::::::::::::::::::::::::::::::::::::::
         :: total free energy         -28.829466122663 Eh   ::
         ::.................................................::
         :: total energy              -28.895465701627 Eh   ::
         :: zero point energy           0.102056428248 Eh   ::
         :: G(RRHO) w/o ZPVE           -0.036056849284 Eh   ::
         :: G(RRHO) contrib.            0.065999578964 Eh   ::
         :::::::::::::::::::::::::::::::::::::::::::::::::::::

           -------------------------------------------------
          | TOTAL ENERGY              -28.895465701627 Eh   |
          | TOTAL ENTHALPY            -28.782575731414 Eh   |
          | TOTAL FREE ENERGY         -28.829466122663 Eh   |
          | GRADIENT NORM               0.000605526944 Eh/α |
          | HOMO-LUMO GAP               3.500875195618 eV   |
           -------------------------------------------------

 * finished run on 2025/10/18 at 06:55:30.692
normal termination of xtb
