   * xtb version 6.7.1 (edcfbbe) compiled by 'albert@albert-system' on 2024-07-22

   ID    Z sym.   atoms
    1    6 C      1, 2, 4, 6, 8, 10
    2   17 Cl     3
    3    1 H      5, 7, 9, 11
    4    8 O      12

          program call               : xtb tb_lite_results_shiftn0p15_gp646_b0_rot180_solute.xyz --ohess --chrg -1
          :  Hamiltonian                  GFN2-xTB          :
 * total energy  :   -23.7101743 Eh     change       -0.7064465E-09 Eh
 * total energy  :   -23.7127530 Eh     change       -0.2578625E-02 Eh
 * total energy  :   -23.7128543 Eh     change       -0.1013666E-03 Eh
 * total energy  :   -23.7128612 Eh     change       -0.6847748E-05 Eh
 * total energy  :   -23.7128620 Eh     change       -0.8454173E-06 Eh
   *** GEOMETRY OPTIMIZATION CONVERGED AFTER 5 ITERATIONS ***

 final structure:
================
12
 xtb: 6.7.1 (edcfbbe)
C           -4.06441560530744       -1.94166961582131        1.92692333630964
C           -3.77524674027725       -2.41932085274547        0.67466933345021
Cl          -7.42384600160096       -3.94836493787375        2.79114301627377
C           -5.20312448124297       -2.36247432419151        2.69111208934677
H           -3.41823144130831       -1.20636427136240        2.39217608203910
C           -4.58785783961251       -3.36202151641782        0.05599046079293
H           -2.89336790745369       -2.05474476297030        0.15383519800776
C           -5.70915149522321       -3.81467207587068        0.73773888334442
H           -4.35797213733847       -3.73807786860793       -0.93275333628019
C           -5.99368014217393       -3.33324925819965        1.99072647107908
H           -6.36527951221436       -4.54951252803298        0.28599321543545
O           -5.46605699021273       -1.92502316029420        3.83410233329858

          :  Hamiltonian                  GFN2-xTB          :
         :: gradient norm              0.000573971653 Eh/a0 ::
         :: HOMO-LUMO gap              3.200865890068 eV    ::
         :: SCC energy               -24.007521871773 Eh    ::
         :: -> dispersion             -0.011615825923 Eh    ::
         :: repulsion energy           0.294659858571 Eh    ::

    * Orbital Energies and Occupations

         #    Occupation            Energy/Eh            Energy/eV
      -------------------------------------------------------------
         1        2.0000           -0.8952855             -24.3620
       ...           ...                  ...                  ...
         9        2.0000           -0.3410707              -9.2810
        10        2.0000           -0.3376669              -9.1884
        11        2.0000           -0.3254997              -8.8573
        12        2.0000           -0.3200237              -8.7083
        13        2.0000           -0.3073491              -8.3634
        14        2.0000           -0.2783742              -7.5749
        15        2.0000           -0.2772424              -7.5442
        16        2.0000           -0.2750942              -7.4857
        17        2.0000           -0.2744038              -7.4669
        18        2.0000           -0.2515006              -6.8437
        19        2.0000           -0.2301519              -6.2628
        20        2.0000           -0.1803819              -4.9084
        21        2.0000           -0.1715405              -4.6679 (HOMO)
        22                         -0.0539108              -1.4670 (LUMO)
        23                         -0.0276221              -0.7516
        24                          0.0237569               0.6465
        25                          0.0818381               2.2269
        26                          0.1875601               5.1038
        27                          0.1902798               5.1778
        28                          0.1908826               5.1942
        29                          0.2036573               5.5418
        30                          0.2720767               7.4036
        31                          0.2900383               7.8923
        32                          0.3081229               8.3845
       ...                                ...                  ...
        41                          0.8593753              23.3848
      -------------------------------------------------------------
                  HL-Gap            0.1176297 Eh            3.2009 eV

     #   Z          covCN         q      C6AA      α(0)
     1   6 C        2.923    -0.101    30.551     9.064
     2   6 C        2.912    -0.050    29.240     8.867
     3  17 Cl       0.962    -0.280   108.087    15.905
     4   6 C        2.852     0.185    24.052     8.038
     5   1 H        0.925    -0.007     3.183     2.790
     6   6 C        2.920    -0.085    30.124     9.000
     7   1 H        0.925    -0.025     3.523     2.935
     8   6 C        2.956    -0.055    29.371     8.889
     9   1 H        0.925    -0.026     3.556     2.949
    10   6 C        2.891     0.025    27.440     8.588
    11   1 H        0.925    -0.004     3.128     2.766
    12   8 O        0.857    -0.577    25.552     6.777

Wiberg/Mayer (AO) data.
largest (>0.10) Wiberg bond orders for each atom

     #   Z sym  total        # sym  WBO       # sym  WBO       # sym  WBO
 ---------------------------------------------------------------------------
     1   6 C    3.978 --     2 C    1.521     4 C    1.187     5 H    0.971
                            12 O    0.107
     2   6 C    3.988 --     1 C    1.521     6 C    1.382     7 H    0.969
     3  17 Cl   1.012 --    10 C    0.899
     4   6 C    3.974 --    12 O    1.497     1 C    1.187    10 C    1.181
     5   1 H    1.000 --     1 C    0.971
     6   6 C    3.969 --     8 C    1.392     2 C    1.382     9 H    0.972
     7   1 H    0.999 --     2 C    0.969
     8   6 C    3.988 --    10 C    1.480     6 C    1.392    11 H    0.969
     9   1 H    0.999 --     6 C    0.972
    10   6 C    3.852 --     8 C    1.480     4 C    1.181     3 Cl   0.899
                            12 O    0.112
    11   1 H    1.000 --     8 C    0.969
    12   8 O    1.833 --     4 C    1.497    10 C    0.112     1 C    0.107
 ---------------------------------------------------------------------------

molecular dipole:
                 x           y           z       tot (Debye)
 q only:       10.693       5.072      -5.134
   full:       10.967       5.149      -5.363      33.677

 projected vibrational frequencies (cm⁻¹)
eigval :       -0.00    -0.00    -0.00     0.00     0.00     0.00
eigval :      128.83   202.85   239.31   346.23   389.53   507.35
eigval :      511.78   531.89   646.44   660.46   746.48   809.81
eigval :      844.35   875.22   903.23   991.16  1077.27  1134.12
eigval :     1169.56  1210.62  1300.21  1377.56  1461.01  1514.48
eigval :     1566.56  1625.38  2977.94  3021.18  3032.37  3042.98

   temp. (K)  partition function   enthalpy   heat capacity  entropy
                                   cal/mol     cal/K/mol   cal/K/mol   J/K/mol
 298.15  VIB   11.7                 2406.080     18.948     12.957
         ROT  0.392E+06              888.752      2.981     28.575
         INT  0.460E+07             3294.832     21.929     41.532
         TR   0.139E+28             1481.254      4.968     40.425
         TOT                        4776.0864    26.8973    81.9572   342.9089

       T/K    H(0)-H(T)+PV         H(T)/Eh          T*S/Eh         G(T)/Eh
   ------------------------------------------------------------------------
    298.15    0.761118E-02    0.869965E-01    0.389405E-01    0.480560E-01
   ------------------------------------------------------------------------

         :::::::::::::::::::::::::::::::::::::::::::::::::::::
         ::                  THERMODYNAMIC                  ::
         :::::::::::::::::::::::::::::::::::::::::::::::::::::
         :: total free energy         -23.664805976696 Eh   ::
         ::.................................................::
         :: total energy              -23.712862013209 Eh   ::
         :: zero point energy           0.079385365339 Eh   ::
         :: G(RRHO) w/o ZPVE           -0.031329328826 Eh   ::
         :: G(RRHO) contrib.            0.048056036513 Eh   ::
         :::::::::::::::::::::::::::::::::::::::::::::::::::::

           -------------------------------------------------
          | TOTAL ENERGY              -23.712862013209 Eh   |
          | TOTAL ENTHALPY            -23.625865469700 Eh   |
          | TOTAL FREE ENERGY         -23.664805976696 Eh   |
          | GRADIENT NORM               0.000573847576 Eh/α |
          | HOMO-LUMO GAP               3.200867960817 eV   |
           -------------------------------------------------

 * finished run on 2025/10/18 at 06:55:29.196
normal termination of xtb
