   * xtb version 6.7.1 (edcfbbe) compiled by 'albert@albert-system' on 2024-07-22

   ID    Z sym.   atoms
    1    6 C      1, 2, 4, 6, 8, 10
    2   17 Cl     3
    3    1 H      5, 7, 9, 11, 14, 15
    4    8 O      12, 13

          program call               : xtb tb_lite_results_shiftn0p1_gp689_b0_rot180_complex.xyz --ohess --chrg -1 --alpb water
      * Solvation model:               ALPB
        Solvent                        water
        Solvent mass                       1.8000E+01 g/mol
          :  Hamiltonian                  GFN2-xTB          :
 * total energy  :   -28.8914651 Eh     change       -0.1504382E-08 Eh
 * total energy  :   -28.8946898 Eh     change       -0.3224666E-02 Eh
 * total energy  :   -28.8950078 Eh     change       -0.3179853E-03 Eh
 * total energy  :   -28.8951192 Eh     change       -0.1114481E-03 Eh
 * total energy  :   -28.8952223 Eh     change       -0.1030111E-03 Eh
 * total energy  :   -28.8952537 Eh     change       -0.3143591E-04 Eh
 * total energy  :   -28.8952880 Eh     change       -0.3429947E-04 Eh
 * total energy  :   -28.8953301 Eh     change       -0.4211746E-04 Eh
 * total energy  :   -28.8953545 Eh     change       -0.2439622E-04 Eh
 * total energy  :   -28.8953871 Eh     change       -0.3262106E-04 Eh
 * total energy  :   -28.8954100 Eh     change       -0.2284365E-04 Eh
 * total energy  :   -28.8954215 Eh     change       -0.1153213E-04 Eh
 * total energy  :   -28.8954268 Eh     change       -0.5301220E-05 Eh
 * total energy  :   -28.8954341 Eh     change       -0.7287791E-05 Eh
 * total energy  :   -28.8954421 Eh     change       -0.7980547E-05 Eh
 * total energy  :   -28.8954540 Eh     change       -0.1196124E-04 Eh
 * total energy  :   -28.8954661 Eh     change       -0.1210835E-04 Eh
 * total energy  :   -28.8954695 Eh     change       -0.3333723E-05 Eh
   *** GEOMETRY OPTIMIZATION CONVERGED AFTER 18 ITERATIONS ***

 final structure:
================
15
 xtb: 6.7.1 (edcfbbe)
C           -4.19363004156998       -1.81618044747868        1.92994599629067
C           -3.79842231013887       -2.35054398928643        0.72629427931691
Cl          -7.42532806202448       -3.99651133437632        2.77829174641101
C           -5.33015460947381       -2.29013454609848        2.63080942408171
H           -3.64200095965152       -1.00585056036559        2.38751613143308
C           -4.50282683073913       -3.39013472824948        0.13692331202448
H           -2.92233727162031       -1.94868728172129        0.23626218961262
C           -5.62216401645291       -3.89104983213686        0.78011180387039
H           -4.18926169876671       -3.80706748993017       -0.80660664290014
C           -6.01138381940294       -3.35068364214090        1.98373785736162
H           -6.19800152716485       -4.69960034648850        0.35507266024605
O           -5.71804078218508       -1.80456052144761        3.75900284017829
O           -4.31958675844895        0.20396301420751        4.78833452720451
H           -4.82549536702698       -0.55668163367007        4.39459093354256
H           -4.86109984489964        0.50878590292384        5.52293651789991

          :  Hamiltonian                  GFN2-xTB          :
         :: gradient norm              0.000795966152 Eh/a0 ::
         :: HOMO-LUMO gap              3.500307096169 eV    ::
         :: SCC energy               -29.220734499708 Eh    ::
         :: -> dispersion             -0.013072573731 Eh    ::
         :: -> Gsolv                  -0.099469231251 Eh    ::
         :: repulsion energy           0.325265022534 Eh    ::

    * Orbital Energies and Occupations

         #    Occupation            Energy/Eh            Energy/eV
      -------------------------------------------------------------
         1        2.0000           -1.0498214             -28.5671
       ...           ...                  ...                  ...
        13        2.0000           -0.4834490             -13.1553
        14        2.0000           -0.4820969             -13.1185
        15        2.0000           -0.4689815             -12.7616
        16        2.0000           -0.4627045             -12.5908
        17        2.0000           -0.4359438             -11.8626
        18        2.0000           -0.4276425             -11.6367
        19        2.0000           -0.4274941             -11.6327
        20        2.0000           -0.4238498             -11.5335
        21        2.0000           -0.4170770             -11.3492
        22        2.0000           -0.4048019             -11.0152
        23        2.0000           -0.3818758             -10.3914
        24        2.0000           -0.3534558              -9.6180
        25        2.0000           -0.3357795              -9.1370 (HOMO)
        26                         -0.2071456              -5.6367 (LUMO)
        27                         -0.1862594              -5.0684
        28                         -0.1294217              -3.5217
        29                         -0.0730010              -1.9865
        30                          0.0323859               0.8813
        31                          0.0354098               0.9636
        32                          0.0366626               0.9976
        33                          0.0488283               1.3287
        34                          0.1149791               3.1287
        35                          0.1371532               3.7321
        36                          0.1538271               4.1858
       ...                                ...                  ...
        47                          0.6893783              18.7589
      -------------------------------------------------------------
                  HL-Gap            0.1286340 Eh            3.5003 eV

     #   Z          covCN         q      C6AA      α(0)
     1   6 C        2.924    -0.096    30.409     9.043
     2   6 C        2.915    -0.048    29.192     8.860
     3  17 Cl       0.964    -0.271   107.800    15.884
     4   6 C        2.865     0.165    24.447     8.105
     5   1 H        0.925     0.014     2.830     2.631
     6   6 C        2.922    -0.071    29.773     8.948
     7   1 H        0.925     0.026     2.642     2.542
     8   6 C        2.952    -0.055    29.373     8.889
     9   1 H        0.926     0.032     2.552     2.498
    10   6 C        2.893     0.026    27.415     8.585
    11   1 H        0.926     0.038     2.478     2.462
    12   8 O        0.857    -0.694    28.538     7.162
    13   8 O        1.605    -0.709    27.947     7.135
    14   1 H        0.801     0.301     0.717     1.331
    15   1 H        0.805     0.342     0.608     1.225

Wiberg/Mayer (AO) data.
largest (>0.10) Wiberg bond orders for each atom

     #   Z sym  total        # sym  WBO       # sym  WBO       # sym  WBO
 ---------------------------------------------------------------------------
     1   6 C    3.983 --     2 C    1.495     4 C    1.254     5 H    0.969
     2   6 C    3.991 --     1 C    1.495     6 C    1.402     7 H    0.970
     3  17 Cl   1.018 --    10 C    0.905
     4   6 C    3.967 --    12 O    1.335     1 C    1.254    10 C    1.249
     5   1 H    1.000 --     1 C    0.969
     6   6 C    3.982 --     8 C    1.414     2 C    1.402     9 H    0.971
     7   1 H    0.999 --     2 C    0.970
     8   6 C    3.987 --    10 C    1.450     6 C    1.414    11 H    0.968
     9   1 H    0.999 --     6 C    0.971
    10   6 C    3.861 --     8 C    1.450     4 C    1.249     3 Cl   0.905
    11   1 H    0.998 --     8 C    0.968
    12   8 O    1.743 --     4 C    1.335
    13   8 O    1.748 --    15 H    0.883    14 H    0.822
    14   1 H    0.909 --    13 O    0.822
    15   1 H    0.883 --    13 O    0.883
 ---------------------------------------------------------------------------

molecular dipole:
                 x           y           z       tot (Debye)
 q only:       10.603       3.987      -6.246
   full:       10.601       4.107      -6.117      32.813

 projected vibrational frequencies (cm⁻¹)
eigval :       -0.00    -0.00    -0.00    -0.00     0.00     0.00
eigval :       36.65    60.22    75.72   137.43   154.05   242.98
eigval :      275.29   350.25   397.50   499.60   515.20   531.38
eigval :      555.24   654.44   658.15   762.90   792.88   842.65
eigval :      845.70   878.94   908.18  1000.50  1084.43  1144.14
eigval :     1167.78  1229.12  1301.47  1337.52  1433.84  1485.49
eigval :     1534.35  1539.34  1595.68  2886.13  3049.34  3065.87
eigval :     3074.07  3093.78  3615.50

   temp. (K)  partition function   enthalpy   heat capacity  entropy
                                   cal/mol     cal/K/mol   cal/K/mol   J/K/mol
 298.15  VIB  0.155E+04             4422.362     27.140     27.714
         ROT  0.847E+06              888.752      2.981     30.106
         INT  0.132E+10             5311.114     30.121     57.820
         TR   0.170E+28             1481.254      4.968     40.819
         TOT                        6792.3679    35.0895    98.6382   412.7023

       T/K    H(0)-H(T)+PV         H(T)/Eh          T*S/Eh         G(T)/Eh
   ------------------------------------------------------------------------
    298.15    0.108243E-01    0.112917E+00    0.468662E-01    0.660512E-01
   ------------------------------------------------------------------------

         :::::::::::::::::::::::::::::::::::::::::::::::::::::
         ::                  THERMODYNAMIC                  ::
         :::::::::::::::::::::::::::::::::::::::::::::::::::::
         :: total free energy         -28.829418228614 Eh   ::
         ::.................................................::
         :: total energy              -28.895469477742 Eh   ::
         :: zero point energy           0.102093118565 Eh   ::
         :: G(RRHO) w/o ZPVE           -0.036041869437 Eh   ::
         :: G(RRHO) contrib.            0.066051249128 Eh   ::
         :::::::::::::::::::::::::::::::::::::::::::::::::::::

           -------------------------------------------------
          | TOTAL ENERGY              -28.895469477742 Eh   |
          | TOTAL ENTHALPY            -28.782552031919 Eh   |
          | TOTAL FREE ENERGY         -28.829418228614 Eh   |
          | GRADIENT NORM               0.000798125573 Eh/α |
          | HOMO-LUMO GAP               3.500307980481 eV   |
           -------------------------------------------------

 * finished run on 2025/10/18 at 06:55:32.783
normal termination of xtb
