   * xtb version 6.7.1 (edcfbbe) compiled by 'albert@albert-system' on 2024-07-22

   ID    Z sym.   atoms
    1    6 C      1, 2, 4, 6, 8, 10
    2   17 Cl     3
    3    1 H      5, 7, 9, 11, 14, 15
    4    8 O      12, 13

          program call               : xtb tb_lite_results_shiftn0p2_gp689_b0_rot180_complex.xyz --ohess --chrg -1 --alpb water
      * Solvation model:               ALPB
        Solvent                        water
        Solvent mass                       1.8000E+01 g/mol
          :  Hamiltonian                  GFN2-xTB          :
 * total energy  :   -28.8909059 Eh     change       -0.1706507E-08 Eh
 * total energy  :   -28.8948255 Eh     change       -0.3919603E-02 Eh
 * total energy  :   -28.8951253 Eh     change       -0.2998414E-03 Eh
 * total energy  :   -28.8951746 Eh     change       -0.4920579E-04 Eh
 * total energy  :   -28.8952276 Eh     change       -0.5300641E-04 Eh
 * total energy  :   -28.8952582 Eh     change       -0.3061270E-04 Eh
 * total energy  :   -28.8952941 Eh     change       -0.3594081E-04 Eh
 * total energy  :   -28.8953360 Eh     change       -0.4192781E-04 Eh
 * total energy  :   -28.8953722 Eh     change       -0.3612426E-04 Eh
 * total energy  :   -28.8953892 Eh     change       -0.1706256E-04 Eh
 * total energy  :   -28.8954194 Eh     change       -0.8273517E-05 Eh
 * total energy  :   -28.8954286 Eh     change       -0.9166867E-05 Eh
 * total energy  :   -28.8954393 Eh     change       -0.1075527E-04 Eh
 * total energy  :   -28.8954516 Eh     change       -0.1224831E-04 Eh
 * total energy  :   -28.8954628 Eh     change       -0.1124895E-04 Eh
 * total energy  :   -28.8954696 Eh     change       -0.6721767E-05 Eh
 * total energy  :   -28.8954714 Eh     change       -0.1837340E-05 Eh
 * total energy  :   -28.8954695 Eh     change        0.1884218E-05 Eh
 * total energy  :   -28.8954720 Eh     change       -0.2504493E-05 Eh
   *** GEOMETRY OPTIMIZATION CONVERGED AFTER 21 ITERATIONS ***

 final structure:
================
15
 xtb: 6.7.1 (edcfbbe)
C           -4.19597875442934       -1.83649118238972        1.93072276027651
C           -3.78827885530305       -2.37270364139999        0.73212233653241
Cl          -7.45511797833524       -3.99399160968672        2.73258167097109
C           -5.34614186574589       -2.30232852042534        2.61493602099957
H           -3.64519781101774       -1.03035688544259        2.39681691150119
C           -4.49258577784528       -3.40607430733667        0.13164872122600
H           -2.90260310206546       -1.97680402051476        0.25470769647015
C           -5.62433373376862       -3.89930226541160        0.75871614553862
H           -4.16929183955330       -3.82398954433549       -0.80812588374760
C           -6.02539119472773       -3.35725685845213        1.95771690222637
H           -6.20001352585655       -4.70356451954025        0.32546490719281
O           -5.74630709965462       -1.81410286491662        3.73773212802678
O           -4.34813037380805        0.18081133458403        4.79257177135660
H           -4.85520659651195       -0.57281706085383        4.38713798132677
H           -4.88386223290151        0.46540351548452        5.53976666480624

          :  Hamiltonian                  GFN2-xTB          :
         :: gradient norm              0.000318684446 Eh/a0 ::
         :: HOMO-LUMO gap              3.500637131748 eV    ::
         :: SCC energy               -29.220734575398 Eh    ::
         :: -> dispersion             -0.013071084707 Eh    ::
         :: -> Gsolv                  -0.099467337460 Eh    ::
         :: repulsion energy           0.325262564944 Eh    ::

    * Orbital Energies and Occupations

         #    Occupation            Energy/Eh            Energy/eV
      -------------------------------------------------------------
         1        2.0000           -1.0497968             -28.5664
       ...           ...                  ...                  ...
        13        2.0000           -0.4834642             -13.1557
        14        2.0000           -0.4821626             -13.1203
        15        2.0000           -0.4689828             -12.7617
        16        2.0000           -0.4627282             -12.5915
        17        2.0000           -0.4359111             -11.8617
        18        2.0000           -0.4276293             -11.6364
        19        2.0000           -0.4274982             -11.6328
        20        2.0000           -0.4238665             -11.5340
        21        2.0000           -0.4170943             -11.3497
        22        2.0000           -0.4048154             -11.0156
        23        2.0000           -0.3819130             -10.3924
        24        2.0000           -0.3534609              -9.6182
        25        2.0000           -0.3358163              -9.1380 (HOMO)
        26                         -0.2071702              -5.6374 (LUMO)
        27                         -0.1862712              -5.0687
        28                         -0.1296030              -3.5267
        29                         -0.0729904              -1.9862
        30                          0.0324324               0.8825
        31                          0.0354442               0.9645
        32                          0.0367002               0.9987
        33                          0.0488200               1.3285
        34                          0.1149809               3.1288
        35                          0.1371433               3.7319
        36                          0.1536341               4.1806
       ...                                ...                  ...
        47                          0.6894250              18.7602
      -------------------------------------------------------------
                  HL-Gap            0.1286461 Eh            3.5006 eV

     #   Z          covCN         q      C6AA      α(0)
     1   6 C        2.924    -0.096    30.407     9.043
     2   6 C        2.915    -0.048    29.192     8.860
     3  17 Cl       0.964    -0.272   107.811    15.885
     4   6 C        2.865     0.165    24.447     8.105
     5   1 H        0.925     0.014     2.831     2.631
     6   6 C        2.922    -0.071    29.772     8.948
     7   1 H        0.925     0.026     2.641     2.541
     8   6 C        2.952    -0.055    29.371     8.889
     9   1 H        0.926     0.032     2.552     2.498
    10   6 C        2.893     0.026    27.415     8.585
    11   1 H        0.926     0.038     2.477     2.461
    12   8 O        0.857    -0.694    28.538     7.162
    13   8 O        1.605    -0.709    27.946     7.135
    14   1 H        0.801     0.301     0.717     1.331
    15   1 H        0.805     0.342     0.608     1.225

Wiberg/Mayer (AO) data.
largest (>0.10) Wiberg bond orders for each atom

     #   Z sym  total        # sym  WBO       # sym  WBO       # sym  WBO
 ---------------------------------------------------------------------------
     1   6 C    3.983 --     2 C    1.495     4 C    1.254     5 H    0.969
     2   6 C    3.991 --     1 C    1.495     6 C    1.402     7 H    0.970
     3  17 Cl   1.018 --    10 C    0.905
     4   6 C    3.967 --    12 O    1.335     1 C    1.254    10 C    1.250
     5   1 H    1.000 --     1 C    0.969
     6   6 C    3.982 --     8 C    1.414     2 C    1.402     9 H    0.971
     7   1 H    0.999 --     2 C    0.970
     8   6 C    3.987 --    10 C    1.450     6 C    1.414    11 H    0.968
     9   1 H    0.999 --     6 C    0.971
    10   6 C    3.861 --     8 C    1.450     4 C    1.250     3 Cl   0.905
    11   1 H    0.998 --     8 C    0.968
    12   8 O    1.743 --     4 C    1.335
    13   8 O    1.748 --    15 H    0.883    14 H    0.822
    14   1 H    0.909 --    13 O    0.822
    15   1 H    0.883 --    13 O    0.883
 ---------------------------------------------------------------------------

molecular dipole:
                 x           y           z       tot (Debye)
 q only:       10.659       3.993      -6.200
   full:       10.656       4.110      -6.069      32.874

 projected vibrational frequencies (cm⁻¹)
eigval :       -0.00    -0.00    -0.00     0.00     0.00     0.00
eigval :       38.95    58.47    86.01   137.54   154.19   243.02
eigval :      276.12   350.03   397.78   495.24   515.10   531.27
eigval :      552.94   654.15   658.08   763.17   793.75   842.45
eigval :      845.76   879.79   908.04  1000.21  1084.31  1144.10
eigval :     1167.44  1228.96  1301.70  1337.50  1433.73  1485.67
eigval :     1534.26  1538.49  1595.81  2886.98  3049.28  3065.31
eigval :     3074.53  3094.08  3607.95

   temp. (K)  partition function   enthalpy   heat capacity  entropy
                                   cal/mol     cal/K/mol   cal/K/mol   J/K/mol
 298.15  VIB  0.136E+04             4410.616     27.222     27.547
         ROT  0.847E+06              888.752      2.981     30.107
         INT  0.115E+10             5299.368     30.203     57.653
         TR   0.170E+28             1481.254      4.968     40.819
         TOT                        6780.6222    35.1708    98.4720   412.0070

       T/K    H(0)-H(T)+PV         H(T)/Eh          T*S/Eh         G(T)/Eh
   ------------------------------------------------------------------------
    298.15    0.108056E-01    0.112895E+00    0.467872E-01    0.661080E-01
   ------------------------------------------------------------------------

         :::::::::::::::::::::::::::::::::::::::::::::::::::::
         ::                  THERMODYNAMIC                  ::
         :::::::::::::::::::::::::::::::::::::::::::::::::::::
         :: total free energy         -28.829364031932 Eh   ::
         ::.................................................::
         :: total energy              -28.895472010952 Eh   ::
         :: zero point energy           0.102089612754 Eh   ::
         :: G(RRHO) w/o ZPVE           -0.035981633734 Eh   ::
         :: G(RRHO) contrib.            0.066107979020 Eh   ::
         :::::::::::::::::::::::::::::::::::::::::::::::::::::

           -------------------------------------------------
          | TOTAL ENERGY              -28.895472010952 Eh   |
          | TOTAL ENTHALPY            -28.782576788976 Eh   |
          | TOTAL FREE ENERGY         -28.829364031932 Eh   |
          | GRADIENT NORM               0.000318186846 Eh/α |
          | HOMO-LUMO GAP               3.500638956083 eV   |
           -------------------------------------------------

 * finished run on 2025/10/18 at 06:55:34.881
normal termination of xtb
