   * xtb version 6.7.1 (edcfbbe) compiled by 'albert@albert-system' on 2024-07-22

   ID    Z sym.   atoms
    1    6 C      1, 2, 4, 6, 8, 10
    2   17 Cl     3
    3    1 H      5, 7, 9, 11, 14, 15
    4    8 O      12, 13

          program call               : xtb tb_lite_results_shiftn0p15_gp646_b0_rot180_complex.xyz --ohess --chrg -1 --alpb water
      * Solvation model:               ALPB
        Solvent                        water
        Solvent mass                       1.8000E+01 g/mol
          :  Hamiltonian                  GFN2-xTB          :
 * total energy  :   -28.8913280 Eh     change       -0.1478977E-08 Eh
 * total energy  :   -28.8947854 Eh     change       -0.3457481E-02 Eh
 * total energy  :   -28.8950725 Eh     change       -0.2870341E-03 Eh
 * total energy  :   -28.8951489 Eh     change       -0.7642424E-04 Eh
 * total energy  :   -28.8952417 Eh     change       -0.9281556E-04 Eh
 * total energy  :   -28.8952887 Eh     change       -0.4700473E-04 Eh
 * total energy  :   -28.8953254 Eh     change       -0.3670888E-04 Eh
 * total energy  :   -28.8953578 Eh     change       -0.3238842E-04 Eh
 * total energy  :   -28.8953924 Eh     change       -0.3459094E-04 Eh
 * total energy  :   -28.8954097 Eh     change       -0.1731377E-04 Eh
 * total energy  :   -28.8954338 Eh     change       -0.2404826E-04 Eh
 * total energy  :   -28.8954594 Eh     change       -0.2562227E-04 Eh
 * total energy  :   -28.8954634 Eh     change       -0.4046653E-05 Eh
 * total energy  :   -28.8954653 Eh     change       -0.1888613E-05 Eh
   *** GEOMETRY OPTIMIZATION CONVERGED AFTER 14 ITERATIONS ***

 final structure:
================
15
 xtb: 6.7.1 (edcfbbe)
C           -4.08711158166092       -1.97484840518745        2.05104043308047
C           -3.76878355204380       -2.37911069097342        0.77607918899853
Cl          -7.46490870418042       -3.98610565325937        2.73381159411900
C           -5.23986229883316       -2.44565437801551        2.72740260469275
H           -3.45961301217122       -1.27542344970112        2.58701339290079
C           -4.57123157496665       -3.27625994386608        0.08625419959344
H           -2.87588187928761       -1.98702481972466        0.30917372807702
C           -5.71094763535895       -3.76640209047506        0.70092394581229
H           -4.31733957220241       -3.59121093813288       -0.91300672149900
C           -6.02241555844636       -3.35655571310058        1.97669259766197
H           -6.36242845499429       -4.46552581666013        0.19862060233184
O           -5.55508012988438       -2.08162196198731        3.92224022466390
O           -3.90275448796896       -0.41848902932649        5.16616753327184
H           -4.51721860523393       -1.03242674318640        4.68133181284623
H           -4.22652034639020       -0.40975918071754        6.07210427900189

          :  Hamiltonian                  GFN2-xTB          :
         :: gradient norm              0.000529099940 Eh/a0 ::
         :: HOMO-LUMO gap              3.501207320240 eV    ::
         :: SCC energy               -29.220842945973 Eh    ::
         :: -> dispersion             -0.013078702695 Eh    ::
         :: -> Gsolv                  -0.099459729732 Eh    ::
         :: repulsion energy           0.325377627523 Eh    ::

    * Orbital Energies and Occupations

         #    Occupation            Energy/Eh            Energy/eV
      -------------------------------------------------------------
         1        2.0000           -1.0497970             -28.5664
       ...           ...                  ...                  ...
        13        2.0000           -0.4834824             -13.1562
        14        2.0000           -0.4821226             -13.1192
        15        2.0000           -0.4689650             -12.7612
        16        2.0000           -0.4627321             -12.5916
        17        2.0000           -0.4359029             -11.8615
        18        2.0000           -0.4276186             -11.6361
        19        2.0000           -0.4274912             -11.6326
        20        2.0000           -0.4238280             -11.5329
        21        2.0000           -0.4170567             -11.3487
        22        2.0000           -0.4048119             -11.0155
        23        2.0000           -0.3819013             -10.3921
        24        2.0000           -0.3534740              -9.6185
        25        2.0000           -0.3358323              -9.1385 (HOMO)
        26                         -0.2071653              -5.6373 (LUMO)
        27                         -0.1862674              -5.0686
        28                         -0.1296309              -3.5274
        29                         -0.0729702              -1.9856
        30                          0.0324367               0.8826
        31                          0.0354459               0.9645
        32                          0.0367003               0.9987
        33                          0.0488149               1.3283
        34                          0.1151131               3.1324
        35                          0.1372731               3.7354
        36                          0.1538208               4.1857
       ...                                ...                  ...
        47                          0.6894561              18.7611
      -------------------------------------------------------------
                  HL-Gap            0.1286669 Eh            3.5012 eV

     #   Z          covCN         q      C6AA      α(0)
     1   6 C        2.924    -0.096    30.408     9.043
     2   6 C        2.915    -0.048    29.192     8.860
     3  17 Cl       0.964    -0.272   107.814    15.885
     4   6 C        2.865     0.165    24.448     8.105
     5   1 H        0.925     0.014     2.824     2.628
     6   6 C        2.922    -0.071    29.772     8.948
     7   1 H        0.926     0.026     2.641     2.542
     8   6 C        2.952    -0.055    29.372     8.889
     9   1 H        0.926     0.033     2.551     2.498
    10   6 C        2.893     0.026    27.415     8.585
    11   1 H        0.926     0.038     2.476     2.461
    12   8 O        0.857    -0.694    28.541     7.163
    13   8 O        1.605    -0.709    27.949     7.135
    14   1 H        0.801     0.302     0.717     1.331
    15   1 H        0.805     0.341     0.609     1.226

Wiberg/Mayer (AO) data.
largest (>0.10) Wiberg bond orders for each atom

     #   Z sym  total        # sym  WBO       # sym  WBO       # sym  WBO
 ---------------------------------------------------------------------------
     1   6 C    3.983 --     2 C    1.495     4 C    1.254     5 H    0.969
     2   6 C    3.991 --     1 C    1.495     6 C    1.402     7 H    0.970
     3  17 Cl   1.017 --    10 C    0.904
     4   6 C    3.967 --    12 O    1.335     1 C    1.254    10 C    1.250
     5   1 H    1.000 --     1 C    0.969
     6   6 C    3.982 --     8 C    1.414     2 C    1.402     9 H    0.971
     7   1 H    0.999 --     2 C    0.970
     8   6 C    3.987 --    10 C    1.450     6 C    1.414    11 H    0.968
     9   1 H    0.999 --     6 C    0.971
    10   6 C    3.861 --     8 C    1.450     4 C    1.250     3 Cl   0.904
    11   1 H    0.998 --     8 C    0.968
    12   8 O    1.743 --     4 C    1.335
    13   8 O    1.748 --    15 H    0.883    14 H    0.821
    14   1 H    0.909 --    13 O    0.821
    15   1 H    0.883 --    13 O    0.883
 ---------------------------------------------------------------------------

molecular dipole:
                 x           y           z       tot (Debye)
 q only:       10.451       4.290      -6.420
   full:       10.479       4.365      -6.262      32.953

 projected vibrational frequencies (cm⁻¹)
eigval :       -0.00    -0.00     0.00     0.00     0.00     0.00
eigval :       30.30    60.37   108.23   138.09   154.88   242.43
eigval :      276.19   350.31   398.08   503.57   515.10   531.34
eigval :      557.80   654.11   657.97   762.41   786.42   842.91
eigval :      845.75   879.78   908.54  1000.25  1084.51  1144.10
eigval :     1167.18  1229.20  1301.78  1337.40  1433.50  1485.68
eigval :     1534.34  1539.25  1595.80  2884.66  3050.08  3067.02
eigval :     3076.59  3095.22  3614.76

   temp. (K)  partition function   enthalpy   heat capacity  entropy
                                   cal/mol     cal/K/mol   cal/K/mol   J/K/mol
 298.15  VIB  0.138E+04             4387.350     27.124     27.142
         ROT  0.845E+06              888.752      2.981     30.102
         INT  0.116E+10             5276.102     30.105     57.245
         TR   0.170E+28             1481.254      4.968     40.819
         TOT                        6757.3561    35.0730    98.0633   410.2970

       T/K    H(0)-H(T)+PV         H(T)/Eh          T*S/Eh         G(T)/Eh
   ------------------------------------------------------------------------
    298.15    0.107685E-01    0.112935E+00    0.465931E-01    0.663419E-01
   ------------------------------------------------------------------------

         :::::::::::::::::::::::::::::::::::::::::::::::::::::
         ::                  THERMODYNAMIC                  ::
         :::::::::::::::::::::::::::::::::::::::::::::::::::::
         :: total free energy         -28.829123393143 Eh   ::
         ::.................................................::
         :: total energy              -28.895465319558 Eh   ::
         :: zero point energy           0.102166446615 Eh   ::
         :: G(RRHO) w/o ZPVE           -0.035824520200 Eh   ::
         :: G(RRHO) contrib.            0.066341926415 Eh   ::
         :::::::::::::::::::::::::::::::::::::::::::::::::::::

           -------------------------------------------------
          | TOTAL ENERGY              -28.895465319558 Eh   |
          | TOTAL ENTHALPY            -28.782530340616 Eh   |
          | TOTAL FREE ENERGY         -28.829123393143 Eh   |
          | GRADIENT NORM               0.000530162999 Eh/α |
          | HOMO-LUMO GAP               3.501205701103 eV   |
           -------------------------------------------------

 * finished run on 2025/10/18 at 06:55:28.685
normal termination of xtb
