   * xtb version 6.7.1 (edcfbbe) compiled by 'albert@albert-system' on 2024-07-22

   ID    Z sym.   atoms
    1    6 C      1-5, 7, 9
    2    1 H      6, 8, 11-15, 17, 18
    3    8 O      10, 16

          program call               : xtb tb_lite_results_shiftn0p1_gp537_b0_rot180_complex.xyz --ohess --chrg -1 --alpb water
      * Solvation model:               ALPB
        Solvent                        water
        Solvent mass                       1.8000E+01 g/mol
          :  Hamiltonian                  GFN2-xTB          :
 * total energy  :   -27.9957657 Eh     change       -0.3330207E-09 Eh
 * total energy  :   -27.9997930 Eh     change       -0.4027264E-02 Eh
 * total energy  :   -28.0003101 Eh     change       -0.5170639E-03 Eh
 * total energy  :   -28.0004955 Eh     change       -0.1854026E-03 Eh
 * total energy  :   -28.0006726 Eh     change       -0.1770796E-03 Eh
 * total energy  :   -28.0007170 Eh     change       -0.4441889E-04 Eh
 * total energy  :   -28.0007246 Eh     change       -0.7616214E-05 Eh
 * total energy  :   -28.0008180 Eh     change       -0.9344058E-04 Eh
 * total energy  :   -28.0008652 Eh     change       -0.4714518E-04 Eh
 * total energy  :   -28.0008017 Eh     change        0.6349547E-04 Eh
 * total energy  :   -28.0022313 Eh     change       -0.4556281E-05 Eh
 * total energy  :   -28.0022383 Eh     change       -0.6935995E-05 Eh
 * total energy  :   -28.0022472 Eh     change       -0.8932692E-05 Eh
 * total energy  :   -28.0022537 Eh     change       -0.6478628E-05 Eh
 * total energy  :   -28.0022634 Eh     change       -0.9751001E-05 Eh
 * total energy  :   -28.0020678 Eh     change        0.1956437E-03 Eh
 * total energy  :   -28.0022660 Eh     change       -0.1982273E-03 Eh
 * total energy  :   -28.0022755 Eh     change       -0.9513277E-05 Eh
 * total energy  :   -28.0022796 Eh     change       -0.4092214E-05 Eh
   *** GEOMETRY OPTIMIZATION CONVERGED AFTER 54 ITERATIONS ***

 final structure:
================
18
 xtb: 6.7.1 (edcfbbe)
C           -5.16333138537188       -6.36152374339859        2.97536451179425
C           -5.21476521260043       -5.05148341807072        3.43384335874245
C           -5.98996672580395       -7.45145580481819        3.59805202311586
C           -4.31771573643544       -6.63335722782947        1.90496412936868
C           -4.46461025612468       -4.05074560110225        2.85591971070911
H           -5.86076558247927       -4.80336382042536        4.26837536067621
C           -3.60398928957546       -4.30725022639164        1.76556127564116
H           -4.51995331065862       -3.03495503636025        3.22979745123696
C           -3.56068185133056       -5.64741155878021        1.31544256865394
O           -2.89139639353200       -3.37980961222511        1.19821290385413
H           -4.25220968982453       -7.64604129561895        1.52417200105979
H           -6.53445854171679       -7.06997919159401        4.45807833320366
H           -6.70784120232625       -7.84373378289662        2.87759021459533
H           -5.35495303179383       -8.27527468677749        3.92197937864462
H           -2.90582119357039       -5.87617041750407        0.48167814408033
O           -3.22031148607508       -0.91456105178403        2.00104307918946
H           -3.08594423142684       -1.87580754449666        1.73380500904914
H           -3.15975169577752       -0.42478224237089        1.17554090300826

          :  Hamiltonian                  GFN2-xTB          :
         :: gradient norm              0.000819496268 Eh/a0 ::
         :: HOMO-LUMO gap              3.497188983186 eV    ::
         :: SCC energy               -28.383550123011 Eh    ::
         :: -> dispersion             -0.013867123262 Eh    ::
         :: -> Gsolv                  -0.103240975848 Eh    ::
         :: repulsion energy           0.381270487862 Eh    ::

    * Orbital Energies and Occupations

         #    Occupation            Energy/Eh            Energy/eV
      -------------------------------------------------------------
         1        2.0000           -0.6453107             -17.5598
       ...           ...                  ...                  ...
        13        2.0000           -0.4757799             -12.9466
        14        2.0000           -0.4697324             -12.7821
        15        2.0000           -0.4514974             -12.2859
        16        2.0000           -0.4494782             -12.2309
        17        2.0000           -0.4462660             -12.1435
        18        2.0000           -0.4427798             -12.0487
        19        2.0000           -0.4099471             -11.1552
        20        2.0000           -0.4044254             -11.0050
        21        2.0000           -0.4040997             -10.9961
        22        2.0000           -0.4019705             -10.9382
        23        2.0000           -0.3714421             -10.1075
        24        2.0000           -0.3353233              -9.1246
        25        2.0000           -0.3172009              -8.6315 (HOMO)
        26                         -0.1886816              -5.1343 (LUMO)
        27                         -0.1677546              -4.5648
        28                         -0.0525755              -1.4307
        29                          0.1138303               3.0975
        30                          0.1329126               3.6167
        31                          0.1435287               3.9056
        32                          0.1719790               4.6798
        33                          0.1917894               5.2189
        34                          0.2053478               5.5878
        35                          0.2130901               5.7985
        36                          0.2352634               6.4018
       ...                                ...                  ...
        45                          0.6989658              19.0198
      -------------------------------------------------------------
                  HL-Gap            0.1285193 Eh            3.4972 eV

     #   Z          covCN         q      C6AA      α(0)
     1   6 C        2.964    -0.030    28.754     8.795
     2   6 C        2.921    -0.055    29.363     8.886
     3   6 C        3.756    -0.109    22.636     6.784
     4   6 C        2.922    -0.056    29.402     8.892
     5   6 C        2.917    -0.097    30.435     9.047
     6   1 H        0.925     0.002     3.021     2.718
     7   6 C        2.835     0.156    24.619     8.131
     8   1 H        0.925    -0.010     3.237     2.814
     9   6 C        2.918    -0.093    30.339     9.032
    10   8 O        0.858    -0.724    29.366     7.265
    11   1 H        0.925     0.005     2.968     2.694
    12   1 H        0.925     0.036     2.502     2.473
    13   1 H        0.925     0.039     2.462     2.454
    14   1 H        0.925     0.039     2.466     2.456
    15   1 H        0.925    -0.020     3.422     2.893
    16   8 O        1.603    -0.719    28.227     7.170
    17   1 H        0.799     0.301     0.720     1.333
    18   1 H        0.805     0.335     0.624     1.241

Wiberg/Mayer (AO) data.
largest (>0.10) Wiberg bond orders for each atom

     #   Z sym  total        # sym  WBO       # sym  WBO       # sym  WBO
 ---------------------------------------------------------------------------
     1   6 C    3.982 --     2 C    1.394     4 C    1.385     3 C    1.019
     2   6 C    3.989 --     5 C    1.479     1 C    1.394     6 H    0.969
     3   6 C    3.998 --     1 C    1.019    12 H    0.987    14 H    0.979
                            13 H    0.977
     4   6 C    3.989 --     9 C    1.489     1 C    1.385    11 H    0.970
     5   6 C    3.982 --     2 C    1.479     7 C    1.281     8 H    0.970
     6   1 H    1.000 --     2 C    0.969
     7   6 C    3.964 --    10 O    1.296     5 C    1.281     9 C    1.274
     8   1 H    1.000 --     5 C    0.970
     9   6 C    3.980 --     4 C    1.489     7 C    1.274    15 H    0.971
    10   8 O    1.712 --     7 C    1.296    17 H    0.105
    11   1 H    1.000 --     4 C    0.970
    12   1 H    0.998 --     3 C    0.987
    13   1 H    0.997 --     3 C    0.977
    14   1 H    0.997 --     3 C    0.979
    15   1 H    0.999 --     9 C    0.971
    16   8 O    1.740 --    18 H    0.887    17 H    0.799
    17   1 H    0.909 --    16 O    0.799    10 O    0.105
    18   1 H    0.888 --    16 O    0.887
 ---------------------------------------------------------------------------

molecular dipole:
                 x           y           z       tot (Debye)
 q only:        6.283       6.640      -3.576
   full:        6.281       6.513      -3.725      24.871

 projected vibrational frequencies (cm⁻¹)
eigval :       -0.00    -0.00    -0.00     0.00     0.00     0.00
eigval :      -66.22    16.64    32.22    67.38   133.05   219.93
eigval :      316.32   323.24   374.43   443.38   470.26   483.88
eigval :      557.94   623.66   656.71   763.53   785.43   849.89
eigval :      868.61   882.09   894.23   908.59  1003.50  1006.05
eigval :     1035.79  1131.96  1195.87  1232.59  1267.26  1316.96
eigval :     1347.93  1395.61  1428.30  1484.54  1489.19  1507.75
eigval :     1539.88  1544.93  1620.12  2647.71  2983.58  3002.24
eigval :     3004.11  3009.28  3023.43  3034.50  3039.93  3622.77

   temp. (K)  partition function   enthalpy   heat capacity  entropy
                                   cal/mol     cal/K/mol   cal/K/mol   J/K/mol
 298.15  VIB  0.393E+04             4279.638     26.189     26.777
         ROT  0.585E+06              888.752      2.981     29.371
         INT  0.230E+10             5168.390     29.170     56.148
         TR   0.135E+28             1481.254      4.968     40.368
         TOT                        6649.6441    34.1384    96.5159   403.8226

       T/K    H(0)-H(T)+PV         H(T)/Eh          T*S/Eh         G(T)/Eh
   ------------------------------------------------------------------------
    298.15    0.105969E-01    0.148625E+00    0.458578E-01    0.102767E+00
   ------------------------------------------------------------------------

         :::::::::::::::::::::::::::::::::::::::::::::::::::::
         ::                  THERMODYNAMIC                  ::
         :::::::::::::::::::::::::::::::::::::::::::::::::::::
         :: total free energy         -27.899512820688 Eh   ::
         ::.................................................::
         :: total energy              -28.002279634418 Eh   ::
         :: zero point energy           0.138027755711 Eh   ::
         :: G(RRHO) w/o ZPVE           -0.035260941980 Eh   ::
         :: G(RRHO) contrib.            0.102766813731 Eh   ::
         :::::::::::::::::::::::::::::::::::::::::::::::::::::

           -------------------------------------------------
          | TOTAL ENERGY              -28.002279634418 Eh   |
          | TOTAL ENTHALPY            -27.853654996308 Eh   |
          | TOTAL FREE ENERGY         -27.899512820688 Eh   |
          | GRADIENT NORM               0.000818663987 Eh/α |
          | HOMO-LUMO GAP               3.497187684783 eV   |
           -------------------------------------------------

 * finished run on 2025/10/18 at 03:06:07.312
normal termination of xtb
