   * xtb version 6.7.1 (edcfbbe) compiled by 'albert@albert-system' on 2024-07-22

   ID    Z sym.   atoms
    1    6 C      1-5, 7, 9
    2    1 H      6, 8, 11-15, 17, 18
    3    8 O      10, 16

          program call               : xtb tb_lite_results_shiftn0p15_gp555_b0_rot180_complex.xyz --ohess --chrg -1 --alpb water
      * Solvation model:               ALPB
        Solvent                        water
        Solvent mass                       1.8000E+01 g/mol
          :  Hamiltonian                  GFN2-xTB          :
 * total energy  :   -27.9959483 Eh     change       -0.3260396E-09 Eh
 * total energy  :   -28.0000949 Eh     change       -0.4146618E-02 Eh
 * total energy  :   -28.0005381 Eh     change       -0.4431466E-03 Eh
 * total energy  :   -28.0006775 Eh     change       -0.1394171E-03 Eh
 * total energy  :   -28.0008962 Eh     change       -0.2187019E-03 Eh
 * total energy  :   -28.0009572 Eh     change       -0.6098208E-04 Eh
 * total energy  :   -28.0010144 Eh     change       -0.5727609E-04 Eh
 * total energy  :   -28.0011278 Eh     change       -0.1133853E-03 Eh
 * total energy  :   -28.0011866 Eh     change       -0.5877224E-04 Eh
 * total energy  :   -28.0012829 Eh     change       -0.9629149E-04 Eh
 * total energy  :   -28.0022050 Eh     change       -0.3288157E-04 Eh
 * total energy  :   -28.0022213 Eh     change       -0.1627363E-04 Eh
 * total energy  :   -28.0022409 Eh     change       -0.1960594E-04 Eh
 * total energy  :   -28.0022526 Eh     change       -0.1174178E-04 Eh
 * total energy  :   -28.0022565 Eh     change       -0.3863350E-05 Eh
 * total energy  :   -28.0022613 Eh     change       -0.4867771E-05 Eh
 * total energy  :   -28.0022672 Eh     change       -0.5883512E-05 Eh
 * total energy  :   -28.0022724 Eh     change       -0.5162710E-05 Eh
 * total energy  :   -28.0022770 Eh     change       -0.4633344E-05 Eh
   *** GEOMETRY OPTIMIZATION CONVERGED AFTER 44 ITERATIONS ***

 final structure:
================
18
 xtb: 6.7.1 (edcfbbe)
C           -5.20860117885818       -6.28405014266900        2.94352028660199
C           -5.06199327191290       -4.99860312420544        3.44757433886475
C           -6.19726917599078       -7.25449393965772        3.52626447633891
C           -4.40187466315076       -6.64762393267451        1.86985783597585
C           -4.15355800993177       -4.11249210583724        2.91191545780791
H           -5.67465049434992       -4.67941658812572        4.28302179277573
C           -3.32478578999538       -4.46437820662852        1.82271763310801
H           -4.05228429678769       -3.11181032644550        3.31783952573773
C           -3.48916253415052       -5.77621607037226        1.32130462477346
O           -2.46752886734574       -3.62448234144826        1.32370197455626
H           -4.49255756349391       -7.64376312205582        1.45222887722518
H           -6.73957297752106       -6.79555810365766        4.34904928856594
H           -6.91355317036697       -7.57072367328333        2.76835791173252
H           -5.68651300169578       -8.14310368410922        3.89654499805055
H           -2.87242758108203       -6.07897661806302        0.48316354470257
O           -0.97204835019072       -4.44498777412924       -0.66000238946824
H           -1.58413714159912       -4.13429699362075        0.07557444657225
H           -0.10889666705176       -4.09399956163853       -0.41868396875457

          :  Hamiltonian                  GFN2-xTB          :
         :: gradient norm              0.000447335408 Eh/a0 ::
         :: HOMO-LUMO gap              3.496707563063 eV    ::
         :: SCC energy               -28.383526883675 Eh    ::
         :: -> dispersion             -0.013873445895 Eh    ::
         :: -> Gsolv                  -0.103212267286 Eh    ::
         :: repulsion energy           0.381249860660 Eh    ::

    * Orbital Energies and Occupations

         #    Occupation            Energy/Eh            Energy/eV
      -------------------------------------------------------------
         1        2.0000           -0.6454436             -17.5634
       ...           ...                  ...                  ...
        13        2.0000           -0.4757387             -12.9455
        14        2.0000           -0.4706067             -12.8059
        15        2.0000           -0.4514521             -12.2846
        16        2.0000           -0.4493361             -12.2271
        17        2.0000           -0.4450921             -12.1116
        18        2.0000           -0.4438593             -12.0780
        19        2.0000           -0.4101636             -11.1611
        20        2.0000           -0.4042844             -11.0011
        21        2.0000           -0.4040791             -10.9956
        22        2.0000           -0.4018891             -10.9360
        23        2.0000           -0.3713589             -10.1052
        24        2.0000           -0.3352189              -9.1218
        25        2.0000           -0.3171038              -8.6288 (HOMO)
        26                         -0.1886022              -5.1321 (LUMO)
        27                         -0.1676556              -4.5621
        28                         -0.0525013              -1.4286
        29                          0.1138229               3.0973
        30                          0.1307138               3.5569
        31                          0.1460996               3.9756
        32                          0.1726137               4.6971
        33                          0.1902055               5.1758
        34                          0.2055732               5.5939
        35                          0.2131576               5.8003
        36                          0.2351642               6.3991
       ...                                ...                  ...
        45                          0.6984855              19.0068
      -------------------------------------------------------------
                  HL-Gap            0.1285016 Eh            3.4967 eV

     #   Z          covCN         q      C6AA      α(0)
     1   6 C        2.964    -0.030    28.756     8.796
     2   6 C        2.921    -0.056    29.387     8.890
     3   6 C        3.756    -0.109    22.635     6.783
     4   6 C        2.922    -0.056    29.380     8.889
     5   6 C        2.918    -0.094    30.368     9.037
     6   1 H        0.925     0.003     3.001     2.709
     7   6 C        2.835     0.156    24.618     8.131
     8   1 H        0.925    -0.021     3.439     2.900
     9   6 C        2.917    -0.096    30.414     9.044
    10   8 O        0.858    -0.724    29.373     7.266
    11   1 H        0.925     0.004     2.993     2.705
    12   1 H        0.925     0.037     2.494     2.470
    13   1 H        0.925     0.038     2.471     2.458
    14   1 H        0.925     0.039     2.468     2.457
    15   1 H        0.925    -0.009     3.218     2.805
    16   8 O        1.603    -0.718    28.211     7.168
    17   1 H        0.799     0.301     0.719     1.332
    18   1 H        0.805     0.335     0.624     1.241

Wiberg/Mayer (AO) data.
largest (>0.10) Wiberg bond orders for each atom

     #   Z sym  total        # sym  WBO       # sym  WBO       # sym  WBO
 ---------------------------------------------------------------------------
     1   6 C    3.982 --     2 C    1.395     4 C    1.383     3 C    1.019
     2   6 C    3.988 --     5 C    1.477     1 C    1.395     6 H    0.969
     3   6 C    3.998 --     1 C    1.019    12 H    0.987    13 H    0.978
                            14 H    0.978
     4   6 C    3.989 --     9 C    1.490     1 C    1.383    11 H    0.970
     5   6 C    3.980 --     2 C    1.477     7 C    1.280     8 H    0.971
     6   1 H    1.000 --     2 C    0.969
     7   6 C    3.964 --    10 O    1.297     5 C    1.280     9 C    1.274
     8   1 H    0.999 --     5 C    0.971
     9   6 C    3.982 --     4 C    1.490     7 C    1.274    15 H    0.970
    10   8 O    1.711 --     7 C    1.297    17 H    0.103
    11   1 H    1.000 --     4 C    0.970
    12   1 H    0.998 --     3 C    0.987
    13   1 H    0.997 --     3 C    0.978
    14   1 H    0.997 --     3 C    0.978
    15   1 H    1.000 --     9 C    0.970
    16   8 O    1.741 --    18 H    0.887    17 H    0.800
    17   1 H    0.909 --    16 O    0.800    10 O    0.103
    18   1 H    0.888 --    16 O    0.887
 ---------------------------------------------------------------------------

molecular dipole:
                 x           y           z       tot (Debye)
 q only:        5.445       8.119      -2.127
   full:        5.438       8.181      -1.948      25.454

 projected vibrational frequencies (cm⁻¹)
eigval :       -0.00    -0.00    -0.00     0.00     0.00     0.00
eigval :      -18.95    36.99    66.77   133.13   195.77   219.04
eigval :      316.14   321.33   374.62   446.58   468.87   483.29
eigval :      554.78   623.15   656.84   763.63   785.27   850.04
eigval :      866.42   880.46   892.51   909.75  1004.54  1004.91
eigval :     1035.72  1132.37  1195.59  1232.64  1267.56  1316.99
eigval :     1348.22  1395.43  1428.45  1483.42  1489.70  1507.94
eigval :     1540.62  1543.37  1620.39  2659.06  2984.78  3000.74
eigval :     3002.43  3012.78  3020.95  3034.14  3040.64  3610.41

   temp. (K)  partition function   enthalpy   heat capacity  entropy
                                   cal/mol     cal/K/mol   cal/K/mol   J/K/mol
 298.15  VIB  0.507E+04             4630.244     28.132     28.842
         ROT  0.586E+06              888.752      2.981     29.373
         INT  0.297E+10             5518.996     31.113     58.215
         TR   0.135E+28             1481.254      4.968     40.368
         TOT                        7000.2504    36.0809    98.5834   412.4729

       T/K    H(0)-H(T)+PV         H(T)/Eh          T*S/Eh         G(T)/Eh
   ------------------------------------------------------------------------
    298.15    0.111556E-01    0.149618E+00    0.468402E-01    0.102778E+00
   ------------------------------------------------------------------------

         :::::::::::::::::::::::::::::::::::::::::::::::::::::
         ::                  THERMODYNAMIC                  ::
         :::::::::::::::::::::::::::::::::::::::::::::::::::::
         :: total free energy         -27.899498808409 Eh   ::
         ::.................................................::
         :: total energy              -28.002277023193 Eh   ::
         :: zero point energy           0.138462758468 Eh   ::
         :: G(RRHO) w/o ZPVE           -0.035684543684 Eh   ::
         :: G(RRHO) contrib.            0.102778214784 Eh   ::
         :::::::::::::::::::::::::::::::::::::::::::::::::::::

           -------------------------------------------------
          | TOTAL ENERGY              -28.002277023193 Eh   |
          | TOTAL ENTHALPY            -27.852658655707 Eh   |
          | TOTAL FREE ENERGY         -27.899498808409 Eh   |
          | GRADIENT NORM               0.000447386957 Eh/α |
          | HOMO-LUMO GAP               3.496707118567 eV   |
           -------------------------------------------------

 * finished run on 2025/10/18 at 03:06:03.961
normal termination of xtb
