   * xtb version 6.7.1 (edcfbbe) compiled by 'albert@albert-system' on 2024-07-22

   ID    Z sym.   atoms
    1    6 C      1-5, 7, 9
    2    1 H      6, 8, 11-15, 17, 18
    3    8 O      10, 16

          program call               : xtb tb_lite_results_shiftn0p15_gp537_b0_rot180_complex.xyz --ohess --chrg -1 --alpb water
      * Solvation model:               ALPB
        Solvent                        water
        Solvent mass                       1.8000E+01 g/mol
          :  Hamiltonian                  GFN2-xTB          :
 * total energy  :   -27.9957016 Eh     change       -0.3404210E-10 Eh
 * total energy  :   -27.9999360 Eh     change       -0.4234350E-02 Eh
 * total energy  :   -28.0003873 Eh     change       -0.4513583E-03 Eh
 * total energy  :   -28.0005143 Eh     change       -0.1269988E-03 Eh
 * total energy  :   -28.0006307 Eh     change       -0.1163926E-03 Eh
 * total energy  :   -28.0006450 Eh     change       -0.1428412E-04 Eh
 * total energy  :   -28.0007502 Eh     change       -0.1052603E-03 Eh
 * total energy  :   -28.0007908 Eh     change       -0.4060386E-04 Eh
 * total energy  :   -28.0008490 Eh     change       -0.5813750E-04 Eh
 * total energy  :   -28.0009179 Eh     change       -0.6888722E-04 Eh
 * total energy  :   -28.0021779 Eh     change       -0.1742235E-04 Eh
 * total energy  :   -28.0021875 Eh     change       -0.9671676E-05 Eh
 * total energy  :   -28.0022010 Eh     change       -0.1347363E-04 Eh
 * total energy  :   -28.0022157 Eh     change       -0.1468016E-04 Eh
 * total energy  :   -28.0022330 Eh     change       -0.1731428E-04 Eh
 * total energy  :   -28.0022490 Eh     change       -0.1596973E-04 Eh
 * total energy  :   -28.0022543 Eh     change       -0.5294231E-05 Eh
 * total energy  :   -28.0022568 Eh     change       -0.2546414E-05 Eh
 * total energy  :   -28.0022589 Eh     change       -0.2112420E-05 Eh
   *** GEOMETRY OPTIMIZATION CONVERGED AFTER 42 ITERATIONS ***

 final structure:
================
18
 xtb: 6.7.1 (edcfbbe)
C           -5.15831928633606       -6.36244679186240        2.98006615514233
C           -5.26291358314877       -5.03504052102065        3.37667011253440
C           -5.98606377501820       -7.44429489279978        3.61523470211867
C           -4.25958624452038       -6.65798616082100        1.96041421545125
C           -4.51196592162945       -4.04089197124302        2.78882457810237
H           -5.95164744970179       -4.76796457576446        4.17032201498025
C           -3.59630669728095       -4.32187066494646        1.75030131951000
H           -4.60737982991813       -3.01232555841169        3.11720189340154
C           -3.50117602496414       -5.67849497492902        1.36130904286982
O           -2.87953043564121       -3.40116744527804        1.17671573690327
H           -4.15111011864488       -7.68417774500247        1.62800142922616
H           -6.53878344298068       -7.04904155259212        4.46378748043316
H           -6.69765202884035       -7.85154755567274        2.89654365077809
H           -5.35088503584071       -8.25993019982604        3.95839242036466
H           -2.80369588132693       -5.92632656910264        0.56837960665090
O           -3.21923384171888       -0.94325289615950        1.99432188784247
H           -3.07395250445655       -1.90153505960638        1.71971271282512
H           -3.23049736912663       -0.45417973266874        1.16545405220586

          :  Hamiltonian                  GFN2-xTB          :
         :: gradient norm              0.000607990241 Eh/a0 ::
         :: HOMO-LUMO gap              3.497904838068 eV    ::
         :: SCC energy               -28.383039694359 Eh    ::
         :: -> dispersion             -0.013880971740 Eh    ::
         :: -> Gsolv                  -0.103235047377 Eh    ::
         :: repulsion energy           0.380780763023 Eh    ::

    * Orbital Energies and Occupations

         #    Occupation            Energy/Eh            Energy/eV
      -------------------------------------------------------------
         1        2.0000           -0.6451609             -17.5557
       ...           ...                  ...                  ...
        13        2.0000           -0.4757712             -12.9464
        14        2.0000           -0.4696059             -12.7786
        15        2.0000           -0.4515259             -12.2866
        16        2.0000           -0.4494754             -12.2308
        17        2.0000           -0.4462274             -12.1425
        18        2.0000           -0.4428143             -12.0496
        19        2.0000           -0.4098562             -11.1528
        20        2.0000           -0.4043796             -11.0037
        21        2.0000           -0.4041158             -10.9966
        22        2.0000           -0.4018378             -10.9346
        23        2.0000           -0.3714197             -10.1068
        24        2.0000           -0.3354126              -9.1270
        25        2.0000           -0.3172328              -8.6323 (HOMO)
        26                         -0.1886871              -5.1344 (LUMO)
        27                         -0.1678383              -4.5671
        28                         -0.0526669              -1.4331
        29                          0.1134937               3.0883
        30                          0.1327710               3.6129
        31                          0.1432319               3.8975
        32                          0.1718413               4.6760
        33                          0.1916017               5.2137
        34                          0.2051543               5.5825
        35                          0.2128940               5.7931
        36                          0.2353339               6.4038
       ...                                ...                  ...
        45                          0.6983122              19.0020
      -------------------------------------------------------------
                  HL-Gap            0.1285457 Eh            3.4979 eV

     #   Z          covCN         q      C6AA      α(0)
     1   6 C        2.964    -0.030    28.754     8.795
     2   6 C        2.921    -0.055    29.365     8.886
     3   6 C        3.756    -0.109    22.636     6.784
     4   6 C        2.921    -0.056    29.401     8.892
     5   6 C        2.917    -0.097    30.438     9.047
     6   1 H        0.925     0.002     3.020     2.718
     7   6 C        2.835     0.156    24.620     8.131
     8   1 H        0.925    -0.009     3.219     2.806
     9   6 C        2.918    -0.093    30.339     9.032
    10   8 O        0.858    -0.724    29.361     7.265
    11   1 H        0.925     0.005     2.970     2.695
    12   1 H        0.925     0.036     2.501     2.473
    13   1 H        0.924     0.039     2.461     2.453
    14   1 H        0.925     0.039     2.469     2.457
    15   1 H        0.925    -0.020     3.425     2.894
    16   8 O        1.602    -0.720    28.241     7.172
    17   1 H        0.799     0.301     0.719     1.333
    18   1 H        0.805     0.335     0.625     1.242

Wiberg/Mayer (AO) data.
largest (>0.10) Wiberg bond orders for each atom

     #   Z sym  total        # sym  WBO       # sym  WBO       # sym  WBO
 ---------------------------------------------------------------------------
     1   6 C    3.982 --     2 C    1.394     4 C    1.385     3 C    1.019
     2   6 C    3.989 --     5 C    1.479     1 C    1.394     6 H    0.969
     3   6 C    3.998 --     1 C    1.019    12 H    0.987    14 H    0.979
                            13 H    0.976
     4   6 C    3.989 --     9 C    1.488     1 C    1.385    11 H    0.970
     5   6 C    3.982 --     2 C    1.479     7 C    1.280     8 H    0.969
     6   1 H    1.000 --     2 C    0.969
     7   6 C    3.964 --    10 O    1.296     5 C    1.280     9 C    1.274
     8   1 H    1.000 --     5 C    0.969
     9   6 C    3.980 --     4 C    1.488     7 C    1.274    15 H    0.971
    10   8 O    1.713 --     7 C    1.296    17 H    0.106
    11   1 H    1.000 --     4 C    0.970
    12   1 H    0.998 --     3 C    0.987
    13   1 H    0.997 --     3 C    0.976
    14   1 H    0.997 --     3 C    0.979
    15   1 H    0.999 --     9 C    0.971
    16   8 O    1.740 --    18 H    0.887    17 H    0.798
    17   1 H    0.909 --    16 O    0.798    10 O    0.106
    18   1 H    0.888 --    16 O    0.887
 ---------------------------------------------------------------------------

molecular dipole:
                 x           y           z       tot (Debye)
 q only:        6.222       6.676      -3.549
   full:        6.211       6.549      -3.700      24.794

 projected vibrational frequencies (cm⁻¹)
eigval :       -0.00    -0.00    -0.00     0.00     0.00     0.00
eigval :       17.14    30.10    54.34    74.12   133.04   220.33
eigval :      316.11   323.94   374.32   444.37   472.47   484.42
eigval :      564.82   623.63   656.63   763.52   786.82   851.12
eigval :      870.41   889.33   896.68   910.32  1003.56  1005.97
eigval :     1035.41  1132.60  1196.54  1232.74  1267.47  1316.44
eigval :     1347.25  1395.32  1428.13  1484.53  1488.89  1507.39
eigval :     1540.25  1545.04  1619.57  2636.59  2981.78  3002.04
eigval :     3003.98  3008.39  3021.70  3033.72  3038.94  3614.12

   temp. (K)  partition function   enthalpy   heat capacity  entropy
                                   cal/mol     cal/K/mol   cal/K/mol   J/K/mol
 298.15  VIB  0.162E+05             4784.085     27.736     30.778
         ROT  0.584E+06              888.752      2.981     29.368
         INT  0.946E+10             5672.837     30.717     60.145
         TR   0.135E+28             1481.254      4.968     40.368
         TOT                        7154.0908    35.6848   100.5135   420.5484

       T/K    H(0)-H(T)+PV         H(T)/Eh          T*S/Eh         G(T)/Eh
   ------------------------------------------------------------------------
    298.15    0.114008E-01    0.149563E+00    0.477572E-01    0.101806E+00
   ------------------------------------------------------------------------

         :::::::::::::::::::::::::::::::::::::::::::::::::::::
         ::                  THERMODYNAMIC                  ::
         :::::::::::::::::::::::::::::::::::::::::::::::::::::
         :: total free energy         -27.900452823318 Eh   ::
         ::.................................................::
         :: total energy              -28.002258930450 Eh   ::
         :: zero point energy           0.138162536291 Eh   ::
         :: G(RRHO) w/o ZPVE           -0.036356429159 Eh   ::
         :: G(RRHO) contrib.            0.101806107132 Eh   ::
         :::::::::::::::::::::::::::::::::::::::::::::::::::::

           -------------------------------------------------
          | TOTAL ENERGY              -28.002258930450 Eh   |
          | TOTAL ENTHALPY            -27.852695624755 Eh   |
          | TOTAL FREE ENERGY         -27.900452823318 Eh   |
          | GRADIENT NORM               0.000608097359 Eh/α |
          | HOMO-LUMO GAP               3.497905929908 eV   |
           -------------------------------------------------

 * finished run on 2025/10/18 at 03:05:54.817
normal termination of xtb
