   * xtb version 6.7.1 (edcfbbe) compiled by 'albert@albert-system' on 2024-07-22

   ID    Z sym.   atoms
    1    6 C      1-5, 7, 9
    2    1 H      6, 8, 11-15, 17, 18
    3    8 O      10, 16

          program call               : xtb tb_lite_results_shiftn0p15_gp534_b0_rot90_complex.xyz --ohess --chrg -1 --alpb water
      * Solvation model:               ALPB
        Solvent                        water
        Solvent mass                       1.8000E+01 g/mol
          :  Hamiltonian                  GFN2-xTB          :
 * total energy  :   -27.9957032 Eh     change       -0.4386251E-09 Eh
 * total energy  :   -28.0001186 Eh     change       -0.4415404E-02 Eh
 * total energy  :   -28.0006181 Eh     change       -0.4995048E-03 Eh
 * total energy  :   -28.0007701 Eh     change       -0.1520657E-03 Eh
 * total energy  :   -28.0009061 Eh     change       -0.1359239E-03 Eh
 * total energy  :   -28.0009388 Eh     change       -0.3271819E-04 Eh
 * total energy  :   -28.0010279 Eh     change       -0.8911902E-04 Eh
 * total energy  :   -28.0010801 Eh     change       -0.5222114E-04 Eh
 * total energy  :   -28.0011351 Eh     change       -0.5497981E-04 Eh
 * total energy  :   -28.0012220 Eh     change       -0.8688165E-04 Eh
 * total energy  :   -28.0022438 Eh     change       -0.6400634E-05 Eh
 * total energy  :   -28.0022492 Eh     change       -0.5407201E-05 Eh
 * total energy  :   -28.0022550 Eh     change       -0.5830214E-05 Eh
 * total energy  :   -28.0022587 Eh     change       -0.3697352E-05 Eh
 * total energy  :   -28.0022681 Eh     change       -0.9380252E-05 Eh
 * total energy  :   -28.0022761 Eh     change       -0.8062600E-05 Eh
 * total energy  :   -28.0022820 Eh     change       -0.5841816E-05 Eh
 * total energy  :   -28.0022871 Eh     change       -0.5077570E-05 Eh
 * total energy  :   -28.0022912 Eh     change       -0.4086881E-05 Eh
   *** GEOMETRY OPTIMIZATION CONVERGED AFTER 48 ITERATIONS ***

 final structure:
================
18
 xtb: 6.7.1 (edcfbbe)
C           -5.18090730352496       -6.34224340543158        3.02983032270724
C           -4.75314949583060       -5.17309504336276        3.64414399931963
C           -6.03282565584628       -7.34906014519773        3.75034891004714
C           -4.78679404895328       -6.55575263294080        1.71269736935129
C           -3.96904224036747       -4.25444384403882        2.98138363849252
H           -5.04052344583210       -4.97239558216495        4.66987413573859
C           -3.55884876715780       -4.45440694413980        1.64439402198275
H           -3.64428303710152       -3.34599658832702        3.47698062008270
C           -4.00373312752737       -5.65018063410098        1.03481361179164
O           -2.82012826162528       -3.58349732161010        1.02342102803036
H           -5.10341056611190       -7.45953502747740        1.20477607812859
H           -6.28348837816739       -6.99132168071660        4.74575212584182
H           -6.95545610417257       -7.53158766784609        3.20050603508534
H           -5.50452099345635       -8.29792481436184        3.84367068941359
H           -3.70582439623165       -5.83674213636057        0.00964711994596
O           -2.16696727850951       -4.09540825429403       -1.45656334857493
H           -2.39895247571858       -3.93555856754569       -0.49008873259320
H           -2.21439993926958       -3.22434232051569       -1.86248607764289

          :  Hamiltonian                  GFN2-xTB          :
         :: gradient norm              0.000440111599 Eh/a0 ::
         :: HOMO-LUMO gap              3.497889189438 eV    ::
         :: SCC energy               -28.383656988890 Eh    ::
         :: -> dispersion             -0.013874900150 Eh    ::
         :: -> Gsolv                  -0.103242562328 Eh    ::
         :: repulsion energy           0.381365833952 Eh    ::

    * Orbital Energies and Occupations

         #    Occupation            Energy/Eh            Energy/eV
      -------------------------------------------------------------
         1        2.0000           -0.6453562             -17.5610
       ...           ...                  ...                  ...
        13        2.0000           -0.4757491             -12.9458
        14        2.0000           -0.4705700             -12.8049
        15        2.0000           -0.4514560             -12.2847
        16        2.0000           -0.4493113             -12.2264
        17        2.0000           -0.4450852             -12.1114
        18        2.0000           -0.4438581             -12.0780
        19        2.0000           -0.4100665             -11.1585
        20        2.0000           -0.4042796             -11.0010
        21        2.0000           -0.4040702             -10.9953
        22        2.0000           -0.4018841             -10.9358
        23        2.0000           -0.3713551             -10.1051
        24        2.0000           -0.3352624              -9.1230
        25        2.0000           -0.3171439              -8.6299 (HOMO)
        26                         -0.1885989              -5.1320 (LUMO)
        27                         -0.1676387              -4.5617
        28                         -0.0524465              -1.4271
        29                          0.1136997               3.0939
        30                          0.1309075               3.5622
        31                          0.1461712               3.9775
        32                          0.1727892               4.7018
        33                          0.1903647               5.1801
        34                          0.2057252               5.5981
        35                          0.2131615               5.8004
        36                          0.2352046               6.4002
       ...                                ...                  ...
        45                          0.6986183              19.0104
      -------------------------------------------------------------
                  HL-Gap            0.1285450 Eh            3.4979 eV

     #   Z          covCN         q      C6AA      α(0)
     1   6 C        2.964    -0.030    28.754     8.796
     2   6 C        2.921    -0.056    29.388     8.890
     3   6 C        3.756    -0.109    22.635     6.783
     4   6 C        2.922    -0.055    29.379     8.889
     5   6 C        2.918    -0.094    30.368     9.037
     6   1 H        0.925     0.003     2.999     2.708
     7   6 C        2.835     0.156    24.619     8.131
     8   1 H        0.925    -0.020     3.438     2.899
     9   6 C        2.917    -0.096    30.411     9.043
    10   8 O        0.858    -0.724    29.369     7.266
    11   1 H        0.925     0.004     2.993     2.705
    12   1 H        0.925     0.037     2.493     2.469
    13   1 H        0.925     0.038     2.469     2.457
    14   1 H        0.925     0.038     2.470     2.458
    15   1 H        0.925    -0.009     3.216     2.804
    16   8 O        1.603    -0.719    28.223     7.170
    17   1 H        0.799     0.301     0.719     1.333
    18   1 H        0.805     0.335     0.624     1.241

Wiberg/Mayer (AO) data.
largest (>0.10) Wiberg bond orders for each atom

     #   Z sym  total        # sym  WBO       # sym  WBO       # sym  WBO
 ---------------------------------------------------------------------------
     1   6 C    3.982 --     2 C    1.396     4 C    1.383     3 C    1.019
     2   6 C    3.988 --     5 C    1.476     1 C    1.396     6 H    0.969
     3   6 C    3.998 --     1 C    1.019    12 H    0.987    13 H    0.978
                            14 H    0.977
     4   6 C    3.989 --     9 C    1.491     1 C    1.383    11 H    0.970
     5   6 C    3.980 --     2 C    1.476     7 C    1.281     8 H    0.971
     6   1 H    1.000 --     2 C    0.969
     7   6 C    3.964 --    10 O    1.296     5 C    1.281     9 C    1.274
     8   1 H    0.999 --     5 C    0.971
     9   6 C    3.982 --     4 C    1.491     7 C    1.274    15 H    0.969
    10   8 O    1.711 --     7 C    1.296    17 H    0.104
    11   1 H    1.000 --     4 C    0.970
    12   1 H    0.998 --     3 C    0.987
    13   1 H    0.997 --     3 C    0.978
    14   1 H    0.997 --     3 C    0.977
    15   1 H    1.000 --     9 C    0.969
    16   8 O    1.741 --    18 H    0.887    17 H    0.799
    17   1 H    0.909 --    16 O    0.799    10 O    0.104
    18   1 H    0.888 --    16 O    0.887
 ---------------------------------------------------------------------------

molecular dipole:
                 x           y           z       tot (Debye)
 q only:        5.753       8.270      -1.877
   full:        5.673       8.386      -1.756      26.119

 projected vibrational frequencies (cm⁻¹)
eigval :       -0.00    -0.00    -0.00     0.00     0.00     0.00
eigval :        7.88    31.63    64.06   112.14   133.67   219.58
eigval :      316.36   321.17   375.28   445.57   467.49   483.71
eigval :      541.85   623.27   657.16   763.70   786.03   850.87
eigval :      869.45   883.69   893.50   910.49  1004.58  1005.25
eigval :     1035.76  1132.68  1195.89  1232.78  1268.01  1317.41
eigval :     1348.04  1395.70  1428.38  1483.60  1489.68  1508.02
eigval :     1540.16  1543.86  1620.52  2647.60  2984.04  3001.59
eigval :     3003.23  3012.64  3021.80  3034.46  3040.96  3615.61

   temp. (K)  partition function   enthalpy   heat capacity  entropy
                                   cal/mol     cal/K/mol   cal/K/mol   J/K/mol
 298.15  VIB  0.208E+05             4749.996     28.067     30.790
         ROT  0.585E+06              888.752      2.981     29.372
         INT  0.122E+11             5638.748     31.047     60.162
         TR   0.135E+28             1481.254      4.968     40.368
         TOT                        7120.0024    36.0156   100.5301   420.6181

       T/K    H(0)-H(T)+PV         H(T)/Eh          T*S/Eh         G(T)/Eh
   ------------------------------------------------------------------------
    298.15    0.113464E-01    0.149565E+00    0.477651E-01    0.101800E+00
   ------------------------------------------------------------------------

         :::::::::::::::::::::::::::::::::::::::::::::::::::::
         ::                  THERMODYNAMIC                  ::
         :::::::::::::::::::::::::::::::::::::::::::::::::::::
         :: total free energy         -27.900491582165 Eh   ::
         ::.................................................::
         :: total energy              -28.002291154572 Eh   ::
         :: zero point energy           0.138218236427 Eh   ::
         :: G(RRHO) w/o ZPVE           -0.036418664021 Eh   ::
         :: G(RRHO) contrib.            0.101799572407 Eh   ::
         :::::::::::::::::::::::::::::::::::::::::::::::::::::

           -------------------------------------------------
          | TOTAL ENERGY              -28.002291154572 Eh   |
          | TOTAL ENTHALPY            -27.852726472118 Eh   |
          | TOTAL FREE ENERGY         -27.900491582165 Eh   |
          | GRADIENT NORM               0.000439647127 Eh/α |
          | HOMO-LUMO GAP               3.497887565487 eV   |
           -------------------------------------------------

 * finished run on 2025/10/18 at 03:06:10.566
normal termination of xtb
