   * xtb version 6.7.1 (edcfbbe) compiled by 'albert@albert-system' on 2024-07-22

   ID    Z sym.   atoms
    1    6 C      1-5, 7, 9
    2    1 H      6, 8, 11-15, 17, 18
    3    8 O      10, 16

          program call               : xtb tb_lite_results_shiftn0p2_gp537_b0_rot180_complex.xyz --ohess --chrg -1 --alpb water
      * Solvation model:               ALPB
        Solvent                        water
        Solvent mass                       1.8000E+01 g/mol
          :  Hamiltonian                  GFN2-xTB          :
 * total energy  :   -27.9953847 Eh     change       -0.3650165E-09 Eh
 * total energy  :   -27.9999978 Eh     change       -0.4613097E-02 Eh
 * total energy  :   -28.0004400 Eh     change       -0.4421472E-03 Eh
 * total energy  :   -28.0005352 Eh     change       -0.9521088E-04 Eh
 * total energy  :   -28.0006740 Eh     change       -0.1388062E-03 Eh
 * total energy  :   -28.0007496 Eh     change       -0.7557706E-04 Eh
 * total energy  :   -28.0008355 Eh     change       -0.8593859E-04 Eh
 * total energy  :   -27.9998878 Eh     change        0.9477662E-03 Eh
 * total energy  :   -28.0009437 Eh     change       -0.1055932E-02 Eh
 * total energy  :   -28.0009924 Eh     change       -0.4866750E-04 Eh
 * total energy  :   -28.0022883 Eh     change       -0.6480118E-05 Eh
 * total energy  :   -28.0022939 Eh     change       -0.5569361E-05 Eh
 * total energy  :   -28.0022956 Eh     change       -0.1662559E-05 Eh
 * total energy  :   -28.0023021 Eh     change       -0.6542641E-05 Eh
 * total energy  :   -28.0023111 Eh     change       -0.8965543E-05 Eh
 * total energy  :   -28.0023187 Eh     change       -0.7561062E-05 Eh
 * total energy  :   -28.0023180 Eh     change        0.6174431E-06 Eh
 * total energy  :   -28.0023228 Eh     change       -0.4736126E-05 Eh
 * total energy  :   -28.0023277 Eh     change       -0.4898248E-05 Eh
   *** GEOMETRY OPTIMIZATION CONVERGED AFTER 57 ITERATIONS ***

 final structure:
================
18
 xtb: 6.7.1 (edcfbbe)
C           -5.17331073477333       -6.37332515221913        2.97213032875221
C           -5.18690760784657       -5.06911772784984        3.44932989179774
C           -5.98867775785680       -7.45979561371531        3.61535092971589
C           -4.37557789578787       -6.64256713202031        1.86505673220704
C           -4.44548418215853       -4.07169475518789        2.85492870699906
H           -5.79545424582410       -4.82292262063229        4.31204992690755
C           -3.63319702086691       -4.32560035778998        1.72760357246451
H           -4.47050728154833       -3.06052285304123        3.24393260429853
C           -3.62805711338352       -5.65969877127648        1.25832787965208
O           -2.92902992431646       -3.40050222489352        1.14597806923806
H           -4.34068950156829       -7.65070975320987        1.46863400273471
H           -6.50953025693163       -7.07573102303356        4.48876056262831
H           -6.72581499051816       -7.84954105314120        2.91336599710622
H           -5.34895323331739       -8.28598085037900        3.92392908297871
H           -3.01090231930766       -5.88661499529742        0.39582508523148
O           -3.15551209871381       -0.95615324869943        2.04046612819152
H           -3.06649253095981       -1.91162164677201        1.73552259104889
H           -2.96883343009000       -0.43514369381060        1.25269357410469

          :  Hamiltonian                  GFN2-xTB          :
         :: gradient norm              0.000574083200 Eh/a0 ::
         :: HOMO-LUMO gap              3.498535915954 eV    ::
         :: SCC energy               -28.383544878442 Eh    ::
         :: -> dispersion             -0.013871002333 Eh    ::
         :: -> Gsolv                  -0.103321326762 Eh    ::
         :: repulsion energy           0.381217210511 Eh    ::

    * Orbital Energies and Occupations

         #    Occupation            Energy/Eh            Energy/eV
      -------------------------------------------------------------
         1        2.0000           -0.6451903             -17.5565
       ...           ...                  ...                  ...
        13        2.0000           -0.4757687             -12.9463
        14        2.0000           -0.4697207             -12.7818
        15        2.0000           -0.4514994             -12.2859
        16        2.0000           -0.4494262             -12.2295
        17        2.0000           -0.4462195             -12.1422
        18        2.0000           -0.4427473             -12.0478
        19        2.0000           -0.4098795             -11.1534
        20        2.0000           -0.4044109             -11.0046
        21        2.0000           -0.4040723             -10.9954
        22        2.0000           -0.4019564             -10.9378
        23        2.0000           -0.3714021             -10.1064
        24        2.0000           -0.3353591              -9.1256
        25        2.0000           -0.3172012              -8.6315 (HOMO)
        26                         -0.1886322              -5.1329 (LUMO)
        27                         -0.1677070              -4.5635
        28                         -0.0524922              -1.4284
        29                          0.1133708               3.0850
        30                          0.1329727               3.6184
        31                          0.1433720               3.9014
        32                          0.1721819               4.6853
        33                          0.1920534               5.2260
        34                          0.2054225               5.5898
        35                          0.2133098               5.8045
        36                          0.2353315               6.4037
       ...                                ...                  ...
        45                          0.6990992              19.0235
      -------------------------------------------------------------
                  HL-Gap            0.1285690 Eh            3.4985 eV

     #   Z          covCN         q      C6AA      α(0)
     1   6 C        2.964    -0.030    28.753     8.795
     2   6 C        2.921    -0.055    29.362     8.886
     3   6 C        3.756    -0.109    22.637     6.784
     4   6 C        2.922    -0.056    29.403     8.892
     5   6 C        2.917    -0.097    30.434     9.047
     6   1 H        0.925     0.002     3.022     2.718
     7   6 C        2.835     0.156    24.620     8.131
     8   1 H        0.925    -0.010     3.233     2.812
     9   6 C        2.918    -0.093    30.339     9.032
    10   8 O        0.858    -0.724    29.361     7.265
    11   1 H        0.925     0.005     2.966     2.693
    12   1 H        0.925     0.036     2.501     2.473
    13   1 H        0.925     0.039     2.463     2.454
    14   1 H        0.925     0.039     2.465     2.455
    15   1 H        0.925    -0.020     3.420     2.892
    16   8 O        1.603    -0.719    28.238     7.172
    17   1 H        0.799     0.301     0.720     1.334
    18   1 H        0.805     0.335     0.624     1.241

Wiberg/Mayer (AO) data.
largest (>0.10) Wiberg bond orders for each atom

     #   Z sym  total        # sym  WBO       # sym  WBO       # sym  WBO
 ---------------------------------------------------------------------------
     1   6 C    3.982 --     2 C    1.394     4 C    1.385     3 C    1.019
     2   6 C    3.989 --     5 C    1.479     1 C    1.394     6 H    0.969
     3   6 C    3.998 --     1 C    1.019    12 H    0.987    14 H    0.978
                            13 H    0.977
     4   6 C    3.989 --     9 C    1.488     1 C    1.385    11 H    0.970
     5   6 C    3.982 --     2 C    1.479     7 C    1.281     8 H    0.970
     6   1 H    1.000 --     2 C    0.969
     7   6 C    3.964 --    10 O    1.296     5 C    1.281     9 C    1.274
     8   1 H    1.000 --     5 C    0.970
     9   6 C    3.980 --     4 C    1.488     7 C    1.274    15 H    0.971
    10   8 O    1.712 --     7 C    1.296    17 H    0.105
    11   1 H    1.000 --     4 C    0.970
    12   1 H    0.998 --     3 C    0.987
    13   1 H    0.997 --     3 C    0.977
    14   1 H    0.997 --     3 C    0.978
    15   1 H    0.999 --     9 C    0.971
    16   8 O    1.740 --    18 H    0.887    17 H    0.799
    17   1 H    0.910 --    16 O    0.799    10 O    0.105
    18   1 H    0.888 --    16 O    0.887
 ---------------------------------------------------------------------------

molecular dipole:
                 x           y           z       tot (Debye)
 q only:        6.384       6.699      -3.502
   full:        6.395       6.579      -3.650      25.098

 projected vibrational frequencies (cm⁻¹)
eigval :       -0.00    -0.00    -0.00     0.00     0.00     0.00
eigval :      -20.36    28.22    60.45    70.94   133.24   220.01
eigval :      316.61   323.12   374.77   443.38   470.47   483.85
eigval :      566.77   624.07   656.89   763.71   785.45   849.04
eigval :      864.18   876.52   894.13   909.02  1003.57  1006.20
eigval :     1035.65  1132.15  1196.14  1232.65  1267.53  1317.25
eigval :     1347.96  1395.55  1428.37  1484.30  1489.07  1508.11
eigval :     1541.38  1546.47  1620.27  2642.44  2984.27  3001.80
eigval :     3004.54  3009.87  3024.20  3034.66  3041.03  3610.61

   temp. (K)  partition function   enthalpy   heat capacity  entropy
                                   cal/mol     cal/K/mol   cal/K/mol   J/K/mol
 298.15  VIB  0.129E+04             4218.845     26.814     26.183
         ROT  0.585E+06              888.752      2.981     29.369
         INT  0.756E+09             5107.597     29.795     55.552
         TR   0.135E+28             1481.254      4.968     40.368
         TOT                        6588.8512    34.7631    95.9202   401.3300

       T/K    H(0)-H(T)+PV         H(T)/Eh          T*S/Eh         G(T)/Eh
   ------------------------------------------------------------------------
    298.15    0.105000E-01    0.148605E+00    0.455748E-01    0.103030E+00
   ------------------------------------------------------------------------

         :::::::::::::::::::::::::::::::::::::::::::::::::::::
         ::                  THERMODYNAMIC                  ::
         :::::::::::::::::::::::::::::::::::::::::::::::::::::
         :: total free energy         -27.899297924456 Eh   ::
         ::.................................................::
         :: total energy              -28.002327668129 Eh   ::
         :: zero point energy           0.138104510944 Eh   ::
         :: G(RRHO) w/o ZPVE           -0.035074767271 Eh   ::
         :: G(RRHO) contrib.            0.103029743673 Eh   ::
         :::::::::::::::::::::::::::::::::::::::::::::::::::::

           -------------------------------------------------
          | TOTAL ENERGY              -28.002327668129 Eh   |
          | TOTAL ENTHALPY            -27.853723154448 Eh   |
          | TOTAL FREE ENERGY         -27.899297924456 Eh   |
          | GRADIENT NORM               0.000574057767 Eh/α |
          | HOMO-LUMO GAP               3.498539699009 eV   |
           -------------------------------------------------

 * finished run on 2025/10/18 at 03:05:59.136
normal termination of xtb
