   * xtb version 6.7.1 (edcfbbe) compiled by 'albert@albert-system' on 2024-07-22

   ID    Z sym.   atoms
    1    6 C      1-5, 7, 9
    2    1 H      6, 8, 11-15
    3    8 O      10

          program call               : xtb tb_lite_results_shiftn0p15_gp555_b0_rot180_solute.xyz --ohess --chrg -1
          :  Hamiltonian                  GFN2-xTB          :
 * total energy  :   -22.8111529 Eh     change       -0.1688690E-08 Eh
 * total energy  :   -22.8142171 Eh     change       -0.3064248E-02 Eh
 * total energy  :   -22.8143674 Eh     change       -0.1502201E-03 Eh
 * total energy  :   -22.8143747 Eh     change       -0.7329745E-05 Eh
 * total energy  :   -22.8143754 Eh     change       -0.7117467E-06 Eh
   *** GEOMETRY OPTIMIZATION CONVERGED AFTER 5 ITERATIONS ***

 final structure:
================
15
 xtb: 6.7.1 (edcfbbe)
C           -5.17793909792614       -6.29802412669839        2.94293822764042
C           -4.98901704080813       -5.04299843039503        3.51395416032810
C           -6.10452323919064       -7.31711251518029        3.55232105295083
C           -4.47035949877871       -6.58035480158584        1.77553830519852
C           -4.14357332664612       -4.11392879902555        2.95888049532626
H           -5.52955131688373       -4.79474024853004        4.42699149313664
C           -3.40074671335183       -4.36551698125996        1.76153969937035
H           -4.02123834371465       -3.14495351984898        3.43274747102901
C           -3.62087268010032       -5.66679564062066        1.20458663507488
O           -2.62100894769106       -3.51978122944682        1.24450287749544
H           -4.60126872723151       -7.55610412556317        1.30901861700145
H           -6.57792005568876       -6.91852665811714        4.45000526032661
H           -6.89413679187997       -7.60503830439851        2.85171089323495
H           -5.56577516601397       -8.22841466108329        3.82950517028438
H           -3.08580740363717       -5.92132738938157        0.29493683689624

          :  Hamiltonian                  GFN2-xTB          :
         :: gradient norm              0.000682789299 Eh/a0 ::
         :: HOMO-LUMO gap              3.203946184958 eV    ::
         :: SCC energy               -23.164739449915 Eh    ::
         :: -> dispersion             -0.012489525726 Eh    ::
         :: repulsion energy           0.350364047428 Eh    ::

    * Orbital Energies and Occupations

         #    Occupation            Energy/Eh            Energy/eV
      -------------------------------------------------------------
         1        2.0000           -0.4656432             -12.6708
       ...           ...                  ...                  ...
         9        2.0000           -0.3434869              -9.3468
        10        2.0000           -0.3412233              -9.2852
        11        2.0000           -0.3178405              -8.6489
        12        2.0000           -0.2991527              -8.1404
        13        2.0000           -0.2942051              -8.0057
        14        2.0000           -0.2885842              -7.8528
        15        2.0000           -0.2824054              -7.6846
        16        2.0000           -0.2461813              -6.6989
        17        2.0000           -0.2454627              -6.6794
        18        2.0000           -0.2450728              -6.6688
        19        2.0000           -0.2131449              -5.8000
        20        2.0000           -0.1530501              -4.1647
        21        2.0000           -0.1460010              -3.9729 (HOMO)
        22                         -0.0282583              -0.7689 (LUMO)
        23                         -0.0040299              -0.1097
        24                          0.1089948               2.9659
        25                          0.2597380               7.0678
        26                          0.2789311               7.5901
        27                          0.3025806               8.2336
        28                          0.3208077               8.7296
        29                          0.3438762               9.3573
        30                          0.3455560               9.4031
        31                          0.3521992               9.5838
        32                          0.3941610              10.7257
       ...                                ...                  ...
        39                          0.8738660              23.7791
      -------------------------------------------------------------
                  HL-Gap            0.1177428 Eh            3.2039 eV

     #   Z          covCN         q      C6AA      α(0)
     1   6 C        2.963    -0.053    29.321     8.882
     2   6 C        2.917    -0.055    29.362     8.886
     3   6 C        3.754    -0.080    22.088     6.702
     4   6 C        2.917    -0.055    29.377     8.888
     5   6 C        2.916    -0.101    30.553     9.064
     6   1 H        0.925    -0.038     3.800     3.049
     7   6 C        2.829     0.180    24.145     8.052
     8   1 H        0.925    -0.023     3.481     2.918
     9   6 C        2.916    -0.100    30.519     9.059
    10   8 O        0.857    -0.615    26.490     6.901
    11   1 H        0.925    -0.036     3.776     3.039
    12   1 H        0.924     0.002     3.025     2.720
    13   1 H        0.924    -0.001     3.080     2.744
    14   1 H        0.924    -0.001     3.082     2.745
    15   1 H        0.925    -0.022     3.475     2.915

Wiberg/Mayer (AO) data.
largest (>0.10) Wiberg bond orders for each atom

     #   Z sym  total        # sym  WBO       # sym  WBO       # sym  WBO
 ---------------------------------------------------------------------------
     1   6 C    3.962 --     2 C    1.374     4 C    1.364     3 C    1.009
     2   6 C    3.985 --     5 C    1.510     1 C    1.374     6 H    0.966
     3   6 C    3.993 --     1 C    1.009    12 H    0.988    13 H    0.981
                            14 H    0.981
     4   6 C    3.985 --     9 C    1.520     1 C    1.364    11 H    0.968
     5   6 C    3.975 --     2 C    1.510     7 C    1.208     8 H    0.972
                            10 O    0.106
     6   1 H    0.999 --     2 C    0.966
     7   6 C    3.972 --    10 O    1.466     5 C    1.208     9 C    1.203
     8   1 H    0.999 --     5 C    0.972
     9   6 C    3.976 --     4 C    1.520     7 C    1.203    15 H    0.972
                            10 O    0.104
    10   8 O    1.783 --     7 C    1.466     5 C    0.106     9 C    0.104
    11   1 H    0.999 --     4 C    0.968
    12   1 H    1.000 --     3 C    0.988
    13   1 H    0.998 --     3 C    0.981
    14   1 H    0.998 --     3 C    0.981
    15   1 H    0.999 --     9 C    0.972
 ---------------------------------------------------------------------------

molecular dipole:
                 x           y           z       tot (Debye)
 q only:        6.819       8.680      -3.591
   full:        6.556       8.388      -3.421      28.423

 projected vibrational frequencies (cm⁻¹)
eigval :       -0.00    -0.00    -0.00     0.00     0.00     0.00
eigval :      -13.82   127.59   299.84   304.50   374.30   440.25
eigval :      444.15   466.50   615.42   652.33   759.54   775.39
eigval :      834.01   862.60   891.90   904.16   989.04   996.88
eigval :     1033.34  1123.54  1198.91  1234.08  1239.12  1319.60
eigval :     1399.49  1415.83  1452.83  1504.26  1505.64  1528.29
eigval :     1567.60  1633.76  2919.96  2939.30  2944.41  2953.90
eigval :     2994.44  3005.93  3013.95

   temp. (K)  partition function   enthalpy   heat capacity  entropy
                                   cal/mol     cal/K/mol   cal/K/mol   J/K/mol
 298.15  VIB   127.                 2815.836     20.035     16.520
         ROT  0.272E+06              888.752      2.981     27.852
         INT  0.345E+08             3704.588     23.016     44.372
         TR   0.107E+28             1481.254      4.968     39.905
         TOT                        5185.8423    27.9837    84.2772   352.6160

       T/K    H(0)-H(T)+PV         H(T)/Eh          T*S/Eh         G(T)/Eh
   ------------------------------------------------------------------------
    298.15    0.826417E-02    0.123723E+00    0.400428E-01    0.836797E-01
   ------------------------------------------------------------------------

         :::::::::::::::::::::::::::::::::::::::::::::::::::::
         ::                  THERMODYNAMIC                  ::
         :::::::::::::::::::::::::::::::::::::::::::::::::::::
         :: total free energy         -22.730695670409 Eh   ::
         ::.................................................::
         :: total energy              -22.814375402490 Eh   ::
         :: zero point energy           0.115458403789 Eh   ::
         :: G(RRHO) w/o ZPVE           -0.031778671707 Eh   ::
         :: G(RRHO) contrib.            0.083679732082 Eh   ::
         :::::::::::::::::::::::::::::::::::::::::::::::::::::

           -------------------------------------------------
          | TOTAL ENERGY              -22.814375402490 Eh   |
          | TOTAL ENTHALPY            -22.690652832933 Eh   |
          | TOTAL FREE ENERGY         -22.730695670409 Eh   |
          | GRADIENT NORM               0.000682789573 Eh/α |
          | HOMO-LUMO GAP               3.203943670816 eV   |
           -------------------------------------------------

 * finished run on 2025/10/18 at 03:06:04.632
normal termination of xtb
