   * xtb version 6.7.1 (edcfbbe) compiled by 'albert@albert-system' on 2024-07-22

   ID    Z sym.   atoms
    1    6 C      1, 2, 6
    2    8 O      3, 12
    3    1 H      4, 5, 7-11, 13, 14

          program call               : xtb tb_lite_results_shiftn0p3_gp186_b0_rot90_complex.xyz --ohess --chrg -1 --alpb water
      * Solvation model:               ALPB
        Solvent                        water
        Solvent mass                       1.8000E+01 g/mol
          :  Hamiltonian                  GFN2-xTB          :
 * total energy  :   -19.4163801 Eh     change       -0.2611955E-10 Eh
 * total energy  :   -19.4213719 Eh     change       -0.4991813E-02 Eh
 * total energy  :   -19.4217605 Eh     change       -0.3886511E-03 Eh
 * total energy  :   -19.4218633 Eh     change       -0.1027528E-03 Eh
 * total energy  :   -19.4219861 Eh     change       -0.1228201E-03 Eh
 * total energy  :   -19.4220185 Eh     change       -0.3236287E-04 Eh
 * total energy  :   -19.4220266 Eh     change       -0.8133175E-05 Eh
 * total energy  :   -19.4220312 Eh     change       -0.4616416E-05 Eh
 * total energy  :   -19.4220343 Eh     change       -0.3045829E-05 Eh
   *** GEOMETRY OPTIMIZATION CONVERGED AFTER 9 ITERATIONS ***

 final structure:
================
14
 xtb: 6.7.1 (edcfbbe)
C           -3.39268198233535       -4.22539695611973       -2.97157743228679
C           -4.17015628040576       -2.94492695359230       -2.60088106575635
O           -3.44582826116611       -2.02221337979482       -1.92171755883629
H           -5.07942055042658       -3.25566872042117       -2.01564832230722
H           -4.56669909268103       -2.49423316371565       -3.54898732412066
C           -4.24134523949085       -5.22221543779049       -3.74418841185683
H           -2.52092363934401       -3.92244834804475       -3.55764314002111
H           -3.02839656046701       -4.66387966676745       -2.03914038434141
H           -4.59845671586622       -4.77144700642870       -4.66805338060829
H           -3.66019343780771       -6.10923563438640       -3.98413171196804
H           -5.10373374417983       -5.51522042343343       -3.14890511914205
O           -2.40174410546803       -3.06722400648346        0.14747852132183
H           -2.85550598445745       -2.64622829002934       -0.68492392748814
H           -1.60856476284381       -2.53581381812870        0.26603827755335

          :  Hamiltonian                  GFN2-xTB          :
         :: gradient norm              0.000742145455 Eh/a0 ::
         :: HOMO-LUMO gap             11.758430213735 eV    ::
         :: SCC energy               -19.595482245239 Eh    ::
         :: -> dispersion             -0.007133645115 Eh    ::
         :: -> Gsolv                  -0.120013110409 Eh    ::
         :: repulsion energy           0.173447980297 Eh    ::

    * Orbital Energies and Occupations

         #    Occupation            Energy/Eh            Energy/eV
      -------------------------------------------------------------
         1        2.0000           -0.6361447             -17.3104
       ...           ...                  ...                  ...
         5        2.0000           -0.5472748             -14.8921
         6        2.0000           -0.5168325             -14.0637
         7        2.0000           -0.5014577             -13.6454
         8        2.0000           -0.4830873             -13.1455
         9        2.0000           -0.4734843             -12.8842
        10        2.0000           -0.4714628             -12.8292
        11        2.0000           -0.4619275             -12.5697
        12        2.0000           -0.4354853             -11.8502
        13        2.0000           -0.4270106             -11.6195
        14        2.0000           -0.4236027             -11.5268
        15        2.0000           -0.3996322             -10.8745
        16        2.0000           -0.3239684              -8.8156
        17        2.0000           -0.3234836              -8.8024 (HOMO)
        18                          0.1086309               2.9560 (LUMO)
        19                          0.1152439               3.1359
        20                          0.1320226               3.5925
        21                          0.1429970               3.8911
        22                          0.1639198               4.4605
        23                          0.1759870               4.7888
        24                          0.2070136               5.6331
        25                          0.2097263               5.7069
        26                          0.2618238               7.1246
        27                          0.2684760               7.3056
        28                          0.2960414               8.0557
        29                          0.3313705               9.0170
      -------------------------------------------------------------
                  HL-Gap            0.4321145 Eh           11.7584 eV

     #   Z          covCN         q      C6AA      α(0)
     1   6 C        3.797    -0.066    21.778     6.645
     2   6 C        3.666     0.163    18.214     6.120
     3   8 O        0.872    -0.831    32.544     7.649
     4   1 H        0.919    -0.092     5.290     3.597
     5   1 H        0.919    -0.086     5.108     3.535
     6   6 C        3.752    -0.105    22.564     6.774
     7   1 H        0.924     0.014     2.828     2.630
     8   1 H        0.924     0.020     2.729     2.584
     9   1 H        0.925     0.033     2.551     2.498
    10   1 H        0.925     0.048     2.341     2.393
    11   1 H        0.925     0.031     2.573     2.508
    12   8 O        1.592    -0.742    28.853     7.249
    13   1 H        0.806     0.291     0.748     1.358
    14   1 H        0.805     0.323     0.656     1.272

Wiberg/Mayer (AO) data.
largest (>0.10) Wiberg bond orders for each atom

     #   Z sym  total        # sym  WBO       # sym  WBO       # sym  WBO
 ---------------------------------------------------------------------------
     1   6 C    3.996 --     6 C    1.021     7 H    0.981     8 H    0.979
                             2 C    0.974
     2   6 C    3.982 --     3 O    1.097     1 C    0.974     5 H    0.949
                             4 H    0.946
     3   8 O    1.443 --     2 C    1.097    13 H    0.162
     4   1 H    0.992 --     2 C    0.946
     5   1 H    0.993 --     2 C    0.949
     6   6 C    3.998 --     1 C    1.021    11 H    0.988     9 H    0.988
                            10 H    0.986
     7   1 H    1.000 --     1 C    0.981
     8   1 H    1.000 --     1 C    0.979
     9   1 H    0.999 --     6 C    0.988
    10   1 H    0.998 --     6 C    0.986
    11   1 H    0.999 --     6 C    0.988
    12   8 O    1.721 --    14 H    0.895    13 H    0.749
    13   1 H    0.915 --    12 O    0.749     3 O    0.162
    14   1 H    0.896 --    12 O    0.895
 ---------------------------------------------------------------------------

molecular dipole:
                 x           y           z       tot (Debye)
 q only:        6.742       4.650       2.837
   full:        6.640       4.680       2.631      21.705

 projected vibrational frequencies (cm⁻¹)
eigval :       -0.00    -0.00    -0.00     0.00     0.00     0.00
eigval :       57.94    74.01    96.25   147.42   216.11   270.53
eigval :      369.57   469.95   643.38   779.90   902.75   907.31
eigval :     1019.49  1079.32  1084.51  1105.59  1167.02  1243.48
eigval :     1304.07  1308.58  1377.97  1394.97  1492.88  1499.16
eigval :     1503.37  1507.50  1563.32  2100.61  2453.54  2594.33
eigval :     2948.05  2971.32  3015.38  3019.92  3027.23  3619.39

   temp. (K)  partition function   enthalpy   heat capacity  entropy
                                   cal/mol     cal/K/mol   cal/K/mol   J/K/mol
 298.15  VIB   234.                 3206.657     18.720     20.997
         ROT  0.162E+06              888.752      2.981     26.823
         INT  0.380E+08             4095.410     21.701     47.819
         TR   0.655E+27             1481.254      4.968     38.925
         TOT                        5576.6637    26.6688    86.7445   362.9390

       T/K    H(0)-H(T)+PV         H(T)/Eh          T*S/Eh         G(T)/Eh
   ------------------------------------------------------------------------
    298.15    0.888698E-02    0.123561E+00    0.412151E-01    0.823459E-01
   ------------------------------------------------------------------------

         :::::::::::::::::::::::::::::::::::::::::::::::::::::
         ::                  THERMODYNAMIC                  ::
         :::::::::::::::::::::::::::::::::::::::::::::::::::::
         :: total free energy         -19.339688337308 Eh   ::
         ::.................................................::
         :: total energy              -19.422034264688 Eh   ::
         :: zero point energy           0.114674061098 Eh   ::
         :: G(RRHO) w/o ZPVE           -0.032328133719 Eh   ::
         :: G(RRHO) contrib.            0.082345927379 Eh   ::
         :::::::::::::::::::::::::::::::::::::::::::::::::::::

           -------------------------------------------------
          | TOTAL ENERGY              -19.422034264688 Eh   |
          | TOTAL ENTHALPY            -19.298473224276 Eh   |
          | TOTAL FREE ENERGY         -19.339688337308 Eh   |
          | GRADIENT NORM               0.000742175029 Eh/α |
          | HOMO-LUMO GAP              11.758433058005 eV   |
           -------------------------------------------------

 * finished run on 2025/10/18 at 00:45:30.993
normal termination of xtb
