   * xtb version 6.7.1 (edcfbbe) compiled by 'albert@albert-system' on 2024-07-22

   ID    Z sym.   atoms
    1    6 C      1, 2, 6
    2    8 O      3, 12
    3    1 H      4, 5, 7-11, 13, 14

          program call               : xtb tb_lite_results_shiftn0p25_gp186_b0_rot0_complex.xyz --ohess --chrg -1 --alpb water
      * Solvation model:               ALPB
        Solvent                        water
        Solvent mass                       1.8000E+01 g/mol
          :  Hamiltonian                  GFN2-xTB          :
 * total energy  :   -19.4169294 Eh     change       -0.2171774E-10 Eh
 * total energy  :   -19.4210836 Eh     change       -0.4154258E-02 Eh
 * total energy  :   -19.4214929 Eh     change       -0.4092946E-03 Eh
 * total energy  :   -19.4216755 Eh     change       -0.1825904E-03 Eh
 * total energy  :   -19.4218648 Eh     change       -0.1893311E-03 Eh
 * total energy  :   -19.4218962 Eh     change       -0.3133880E-04 Eh
 * total energy  :   -19.4219082 Eh     change       -0.1204610E-04 Eh
 * total energy  :   -19.4219153 Eh     change       -0.7047383E-05 Eh
 * total energy  :   -19.4219225 Eh     change       -0.7248015E-05 Eh
 * total energy  :   -19.4219266 Eh     change       -0.4066445E-05 Eh
 * total energy  :   -19.4219301 Eh     change       -0.3505631E-05 Eh
   *** GEOMETRY OPTIMIZATION CONVERGED AFTER 11 ITERATIONS ***

 final structure:
================
14
 xtb: 6.7.1 (edcfbbe)
C           -3.38257839468236       -4.22032488637993       -2.97229832730811
C           -4.15223560954741       -2.93560385462468       -2.60091942407288
O           -3.42464673176448       -2.02128098697664       -1.91338530262011
H           -5.06696790693533       -3.24122540432698       -2.02199045546286
H           -4.54226187249288       -2.47834606856557       -3.54904786980741
C           -4.24471728868124       -5.22298188458839       -3.72371060773849
H           -2.51823333183467       -3.92414026685884       -3.57194402940374
H           -3.00582651963395       -4.65027352128491       -2.04128041797764
H           -4.61810004265758       -4.77791724544261       -4.64354297081853
H           -3.66686577466762       -6.11062500450110       -3.96751487294487
H           -5.09536747638054       -5.51185858487803       -3.11046475850496
O           -2.52543231901969       -3.10095215669538        0.20664562396200
H           -2.86982063017178       -2.67000253373100       -0.67131656243935
H           -2.63631695701623       -2.40619469488790        0.86247965631951

          :  Hamiltonian                  GFN2-xTB          :
         :: gradient norm              0.000556848676 Eh/a0 ::
         :: HOMO-LUMO gap             11.739393037074 eV    ::
         :: SCC energy               -19.595581785315 Eh    ::
         :: -> dispersion             -0.007133930510 Eh    ::
         :: -> Gsolv                  -0.119927108028 Eh    ::
         :: repulsion energy           0.173651686017 Eh    ::

    * Orbital Energies and Occupations

         #    Occupation            Energy/Eh            Energy/eV
      -------------------------------------------------------------
         1        2.0000           -0.6363482             -17.3159
       ...           ...                  ...                  ...
         5        2.0000           -0.5470825             -14.8869
         6        2.0000           -0.5170741             -14.0703
         7        2.0000           -0.5011503             -13.6370
         8        2.0000           -0.4829082             -13.1406
         9        2.0000           -0.4742297             -12.9044
        10        2.0000           -0.4708950             -12.8137
        11        2.0000           -0.4615854             -12.5604
        12        2.0000           -0.4351103             -11.8400
        13        2.0000           -0.4269489             -11.6179
        14        2.0000           -0.4229031             -11.5078
        15        2.0000           -0.4000000             -10.8846
        16        2.0000           -0.3240151              -8.8169
        17        2.0000           -0.3234445              -8.8014 (HOMO)
        18                          0.1079706               2.9380 (LUMO)
        19                          0.1148614               3.1255
        20                          0.1320167               3.5924
        21                          0.1437506               3.9117
        22                          0.1648807               4.4866
        23                          0.1770120               4.8167
        24                          0.2082087               5.6656
        25                          0.2091079               5.6901
        26                          0.2625365               7.1440
        27                          0.2693942               7.3306
        28                          0.2968019               8.0764
        29                          0.3309337               9.0052
      -------------------------------------------------------------
                  HL-Gap            0.4314151 Eh           11.7394 eV

     #   Z          covCN         q      C6AA      α(0)
     1   6 C        3.797    -0.066    21.778     6.645
     2   6 C        3.666     0.162    18.217     6.121
     3   8 O        0.871    -0.832    32.559     7.651
     4   1 H        0.919    -0.090     5.217     3.572
     5   1 H        0.919    -0.087     5.131     3.543
     6   6 C        3.752    -0.105    22.566     6.774
     7   1 H        0.924     0.012     2.850     2.640
     8   1 H        0.924     0.020     2.730     2.584
     9   1 H        0.925     0.033     2.547     2.496
    10   1 H        0.925     0.048     2.344     2.394
    11   1 H        0.925     0.032     2.561     2.502
    12   8 O        1.593    -0.741    28.839     7.247
    13   1 H        0.805     0.291     0.748     1.358
    14   1 H        0.805     0.322     0.658     1.274

Wiberg/Mayer (AO) data.
largest (>0.10) Wiberg bond orders for each atom

     #   Z sym  total        # sym  WBO       # sym  WBO       # sym  WBO
 ---------------------------------------------------------------------------
     1   6 C    3.996 --     6 C    1.021     7 H    0.981     8 H    0.979
                             2 C    0.974
     2   6 C    3.982 --     3 O    1.097     1 C    0.974     5 H    0.949
                             4 H    0.946
     3   8 O    1.442 --     2 C    1.097    13 H    0.161
     4   1 H    0.992 --     2 C    0.946
     5   1 H    0.992 --     2 C    0.949
     6   6 C    3.998 --     1 C    1.021    11 H    0.988     9 H    0.988
                            10 H    0.987
     7   1 H    1.000 --     1 C    0.981
     8   1 H    1.000 --     1 C    0.979
     9   1 H    0.999 --     6 C    0.988
    10   1 H    0.998 --     6 C    0.987
    11   1 H    0.999 --     6 C    0.988
    12   8 O    1.721 --    14 H    0.895    13 H    0.749
    13   1 H    0.915 --    12 O    0.749     3 O    0.161
    14   1 H    0.896 --    12 O    0.895
 ---------------------------------------------------------------------------

molecular dipole:
                 x           y           z       tot (Debye)
 q only:        6.235       4.755       3.117
   full:        6.008       4.818       2.989      20.998

 projected vibrational frequencies (cm⁻¹)
eigval :       -0.00    -0.00    -0.00     0.00     0.00     0.00
eigval :       59.84    77.93   109.39   149.85   214.63   273.80
eigval :      368.66   467.57   644.45   779.57   902.47   906.98
eigval :     1041.00  1078.83  1084.48  1104.46  1167.66  1243.66
eigval :     1303.60  1309.40  1378.40  1393.23  1492.43  1499.87
eigval :     1502.78  1509.71  1564.93  2103.81  2454.50  2593.69
eigval :     2952.21  2976.53  3018.71  3023.67  3030.32  3624.00

   temp. (K)  partition function   enthalpy   heat capacity  entropy
                                   cal/mol     cal/K/mol   cal/K/mol   J/K/mol
 298.15  VIB   195.                 3179.499     18.767     20.642
         ROT  0.162E+06              888.752      2.981     26.820
         INT  0.317E+08             4068.252     21.748     47.462
         TR   0.655E+27             1481.254      4.968     38.925
         TOT                        5549.5057    26.7161    86.3873   361.4443

       T/K    H(0)-H(T)+PV         H(T)/Eh          T*S/Eh         G(T)/Eh
   ------------------------------------------------------------------------
    298.15    0.884370E-02    0.123679E+00    0.410454E-01    0.826340E-01
   ------------------------------------------------------------------------

         :::::::::::::::::::::::::::::::::::::::::::::::::::::
         ::                  THERMODYNAMIC                  ::
         :::::::::::::::::::::::::::::::::::::::::::::::::::::
         :: total free energy         -19.339296072610 Eh   ::
         ::.................................................::
         :: total energy              -19.421930097078 Eh   ::
         :: zero point energy           0.114835695966 Eh   ::
         :: G(RRHO) w/o ZPVE           -0.032201671497 Eh   ::
         :: G(RRHO) contrib.            0.082634024468 Eh   ::
         :::::::::::::::::::::::::::::::::::::::::::::::::::::

           -------------------------------------------------
          | TOTAL ENERGY              -19.421930097078 Eh   |
          | TOTAL ENTHALPY            -19.298250700849 Eh   |
          | TOTAL FREE ENERGY         -19.339296072610 Eh   |
          | GRADIENT NORM               0.000556705639 Eh/α |
          | HOMO-LUMO GAP              11.739401411583 eV   |
           -------------------------------------------------

 * finished run on 2025/10/18 at 00:45:22.054
normal termination of xtb
