   * xtb version 6.7.1 (edcfbbe) compiled by 'albert@albert-system' on 2024-07-22

   ID    Z sym.   atoms
    1    6 C      1, 2, 6
    2    8 O      3, 12
    3    1 H      4, 5, 7-11, 13, 14

          program call               : xtb tb_lite_results_shiftn0p2_gp186_b0_rot90_complex.xyz --ohess --chrg -1 --alpb water
      * Solvation model:               ALPB
        Solvent                        water
        Solvent mass                       1.8000E+01 g/mol
          :  Hamiltonian                  GFN2-xTB          :
 * total energy  :   -19.4172989 Eh     change       -0.2325962E-10 Eh
 * total energy  :   -19.4210208 Eh     change       -0.3721880E-02 Eh
 * total energy  :   -19.4215193 Eh     change       -0.4984662E-03 Eh
 * total energy  :   -19.4218175 Eh     change       -0.2981927E-03 Eh
 * total energy  :   -19.4219826 Eh     change       -0.1650825E-03 Eh
 * total energy  :   -19.4220130 Eh     change       -0.3043487E-04 Eh
 * total energy  :   -19.4220249 Eh     change       -0.1187245E-04 Eh
 * total energy  :   -19.4220280 Eh     change       -0.3127035E-05 Eh
 * total energy  :   -19.4220329 Eh     change       -0.4877825E-05 Eh
 * total energy  :   -19.4220360 Eh     change       -0.3111085E-05 Eh
   *** GEOMETRY OPTIMIZATION CONVERGED AFTER 10 ITERATIONS ***

 final structure:
================
14
 xtb: 6.7.1 (edcfbbe)
C           -3.38487578519881       -4.22955340291299       -2.96049738305372
C           -4.16072254440743       -2.95325924645166       -2.57300381038217
O           -3.43076469742970       -2.03816266600152       -1.88897342427057
H           -5.06597036530553       -3.26903596511503       -1.98520183752134
H           -4.56314050794566       -2.49270167311738       -3.51441141134576
C           -4.23466642897704       -5.21769851751278       -3.74368353577288
H           -2.51438023179439       -3.91903981039791       -3.54394616424054
H           -3.01962686794870       -4.67858764464540       -2.03390092313882
H           -4.59380777352779       -4.75571160893897       -4.66085630166146
H           -3.65271087202659       -6.10055182823285       -3.99525327537969
H           -5.09490724336673       -5.51824925594060       -3.14970457057598
O           -2.39082049841538       -3.10415115314264        0.17280510428111
H           -2.84080639217304       -2.67579289236851       -0.65708850640218
H           -1.60774330643687       -2.56236298225719        0.31006605395711

          :  Hamiltonian                  GFN2-xTB          :
         :: gradient norm              0.000472991215 Eh/a0 ::
         :: HOMO-LUMO gap             11.755835109713 eV    ::
         :: SCC energy               -19.595695346392 Eh    ::
         :: -> dispersion             -0.007132363230 Eh    ::
         :: -> Gsolv                  -0.120063146119 Eh    ::
         :: repulsion energy           0.173659365577 Eh    ::

    * Orbital Energies and Occupations

         #    Occupation            Energy/Eh            Energy/eV
      -------------------------------------------------------------
         1        2.0000           -0.6362893             -17.3143
       ...           ...                  ...                  ...
         5        2.0000           -0.5472132             -14.8904
         6        2.0000           -0.5169084             -14.0658
         7        2.0000           -0.5014398             -13.6449
         8        2.0000           -0.4830677             -13.1449
         9        2.0000           -0.4735939             -12.8871
        10        2.0000           -0.4714269             -12.8282
        11        2.0000           -0.4619029             -12.5690
        12        2.0000           -0.4353948             -11.8477
        13        2.0000           -0.4269863             -11.6189
        14        2.0000           -0.4235636             -11.5258
        15        2.0000           -0.3998038             -10.8792
        16        2.0000           -0.3238777              -8.8132
        17        2.0000           -0.3233415              -8.7986 (HOMO)
        18                          0.1086775               2.9573 (LUMO)
        19                          0.1155074               3.1431
        20                          0.1317749               3.5858
        21                          0.1436473               3.9088
        22                          0.1640538               4.4641
        23                          0.1762391               4.7957
        24                          0.2073055               5.6411
        25                          0.2099059               5.7118
        26                          0.2622776               7.1369
        27                          0.2684899               7.3060
        28                          0.2966444               8.0721
        29                          0.3310080               9.0072
      -------------------------------------------------------------
                  HL-Gap            0.4320190 Eh           11.7558 eV

     #   Z          covCN         q      C6AA      α(0)
     1   6 C        3.797    -0.066    21.778     6.645
     2   6 C        3.666     0.162    18.216     6.120
     3   8 O        0.871    -0.832    32.563     7.651
     4   1 H        0.919    -0.092     5.283     3.595
     5   1 H        0.919    -0.087     5.118     3.538
     6   6 C        3.752    -0.105    22.567     6.775
     7   1 H        0.924     0.014     2.827     2.629
     8   1 H        0.924     0.020     2.730     2.584
     9   1 H        0.925     0.033     2.550     2.497
    10   1 H        0.925     0.048     2.340     2.392
    11   1 H        0.925     0.031     2.571     2.507
    12   8 O        1.593    -0.741    28.839     7.247
    13   1 H        0.805     0.291     0.748     1.359
    14   1 H        0.805     0.323     0.655     1.272

Wiberg/Mayer (AO) data.
largest (>0.10) Wiberg bond orders for each atom

     #   Z sym  total        # sym  WBO       # sym  WBO       # sym  WBO
 ---------------------------------------------------------------------------
     1   6 C    3.996 --     6 C    1.021     7 H    0.981     8 H    0.979
                             2 C    0.974
     2   6 C    3.982 --     3 O    1.097     1 C    0.974     5 H    0.949
                             4 H    0.946
     3   8 O    1.441 --     2 C    1.097    13 H    0.161
     4   1 H    0.992 --     2 C    0.946
     5   1 H    0.992 --     2 C    0.949
     6   6 C    3.998 --     1 C    1.021    11 H    0.988     9 H    0.988
                            10 H    0.986
     7   1 H    1.000 --     1 C    0.981
     8   1 H    1.000 --     1 C    0.979
     9   1 H    0.999 --     6 C    0.988
    10   1 H    0.998 --     6 C    0.986
    11   1 H    0.999 --     6 C    0.988
    12   8 O    1.722 --    14 H    0.895    13 H    0.749
    13   1 H    0.915 --    12 O    0.749     3 O    0.161
    14   1 H    0.896 --    12 O    0.895
 ---------------------------------------------------------------------------

molecular dipole:
                 x           y           z       tot (Debye)
 q only:        6.713       4.693       2.792
   full:        6.609       4.727       2.588      21.676

 projected vibrational frequencies (cm⁻¹)
eigval :       -0.00    -0.00    -0.00    -0.00     0.00     0.00
eigval :       62.99    74.24   104.31   146.81   212.87   269.68
eigval :      369.17   469.86   648.04   778.76   902.53   906.71
eigval :     1024.17  1079.49  1084.04  1105.17  1167.02  1243.11
eigval :     1303.04  1307.69  1377.03  1393.42  1492.21  1498.63
eigval :     1502.77  1507.52  1567.29  2108.64  2454.74  2592.81
eigval :     2951.16  2974.70  3018.24  3023.38  3030.11  3620.42

   temp. (K)  partition function   enthalpy   heat capacity  entropy
                                   cal/mol     cal/K/mol   cal/K/mol   J/K/mol
 298.15  VIB   207.                 3193.602     18.801     20.828
         ROT  0.162E+06              888.752      2.981     26.823
         INT  0.336E+08             4082.354     21.781     47.651
         TR   0.655E+27             1481.254      4.968     38.925
         TOT                        5563.6083    26.7496    86.5760   362.2339

       T/K    H(0)-H(T)+PV         H(T)/Eh          T*S/Eh         G(T)/Eh
   ------------------------------------------------------------------------
    298.15    0.886617E-02    0.123624E+00    0.411350E-01    0.824888E-01
   ------------------------------------------------------------------------

         :::::::::::::::::::::::::::::::::::::::::::::::::::::
         ::                  THERMODYNAMIC                  ::
         :::::::::::::::::::::::::::::::::::::::::::::::::::::
         :: total free energy         -19.339547227352 Eh   ::
         ::.................................................::
         :: total energy              -19.422035980382 Eh   ::
         :: zero point energy           0.114757616500 Eh   ::
         :: G(RRHO) w/o ZPVE           -0.032268863470 Eh   ::
         :: G(RRHO) contrib.            0.082488753030 Eh   ::
         :::::::::::::::::::::::::::::::::::::::::::::::::::::

           -------------------------------------------------
          | TOTAL ENERGY              -19.422035980382 Eh   |
          | TOTAL ENTHALPY            -19.298412189703 Eh   |
          | TOTAL FREE ENERGY         -19.339547227352 Eh   |
          | GRADIENT NORM               0.000472986224 Eh/α |
          | HOMO-LUMO GAP              11.755835938779 eV   |
           -------------------------------------------------

 * finished run on 2025/10/18 at 00:45:28.806
normal termination of xtb
