   * xtb version 6.7.1 (edcfbbe) compiled by 'albert@albert-system' on 2024-07-22

   ID    Z sym.   atoms
    1    6 C      1, 2, 6
    2    8 O      3, 12
    3    1 H      4, 5, 7-11, 13, 14

          program call               : xtb tb_lite_results_shiftn0p2_gp186_b0_rot0_complex.xyz --ohess --chrg -1 --alpb water
      * Solvation model:               ALPB
        Solvent                        water
        Solvent mass                       1.8000E+01 g/mol
          :  Hamiltonian                  GFN2-xTB          :
 * total energy  :   -19.4171824 Eh     change       -0.2206946E-10 Eh
 * total energy  :   -19.4208723 Eh     change       -0.3689874E-02 Eh
 * total energy  :   -19.4213734 Eh     change       -0.5010761E-03 Eh
 * total energy  :   -19.4216789 Eh     change       -0.3055052E-03 Eh
 * total energy  :   -19.4218591 Eh     change       -0.1802836E-03 Eh
 * total energy  :   -19.4218980 Eh     change       -0.3884163E-04 Eh
 * total energy  :   -19.4219124 Eh     change       -0.1441942E-04 Eh
 * total energy  :   -19.4219170 Eh     change       -0.4637042E-05 Eh
 * total energy  :   -19.4219227 Eh     change       -0.5651288E-05 Eh
 * total energy  :   -19.4219287 Eh     change       -0.5991254E-05 Eh
 * total energy  :   -19.4219793 Eh     change       -0.6193915E-05 Eh
 * total energy  :   -19.4219885 Eh     change       -0.9249170E-05 Eh
 * total energy  :   -19.4219949 Eh     change       -0.6403750E-05 Eh
 * total energy  :   -19.4220054 Eh     change       -0.1042506E-04 Eh
 * total energy  :   -19.4220121 Eh     change       -0.6790640E-05 Eh
 * total energy  :   -19.4220113 Eh     change        0.8349137E-06 Eh
 * total energy  :   -19.4220209 Eh     change       -0.9553317E-05 Eh
 * total energy  :   -19.4220273 Eh     change       -0.6453168E-05 Eh
 * total energy  :   -19.4220309 Eh     change       -0.3545187E-05 Eh
   *** GEOMETRY OPTIMIZATION CONVERGED AFTER 26 ITERATIONS ***

 final structure:
================
14
 xtb: 6.7.1 (edcfbbe)
C           -3.38881096584474       -4.21206655095135       -2.96374153330364
C           -4.21593358127444       -2.97684831378023       -2.54975557436196
O           -3.53055594828009       -2.05289633389771       -1.83258174784012
H           -5.11521763126832       -3.34298922442337       -1.98209424265612
H           -4.62533505495786       -2.50677659499777       -3.48296551652976
C           -4.19846255188054       -5.21260289268013       -3.77387910468705
H           -2.52835459580734       -3.85531058784231       -3.53566423365642
H           -3.00884676805123       -4.66843041342187       -2.04644739597099
H           -4.57157526328410       -4.74220526540704       -4.68136070976776
H           -3.58316685534403       -6.06695530542100       -4.04427671017611
H           -5.04908408454699       -5.55954712261410       -3.19113116169842
O           -2.55480942411605       -3.10403566414876        0.26741228120790
H           -2.94692609993687       -2.69165536678757       -0.59945724188728
H           -2.37293860989986       -2.33876087831826        0.82196806968585

          :  Hamiltonian                  GFN2-xTB          :
         :: gradient norm              0.000720842510 Eh/a0 ::
         :: HOMO-LUMO gap             11.737537359134 eV    ::
         :: SCC energy               -19.595515933259 Eh    ::
         :: -> dispersion             -0.007108865843 Eh    ::
         :: -> Gsolv                  -0.119997035205 Eh    ::
         :: repulsion energy           0.173485071870 Eh    ::

    * Orbital Energies and Occupations

         #    Occupation            Energy/Eh            Energy/eV
      -------------------------------------------------------------
         1        2.0000           -0.6361736             -17.3112
       ...           ...                  ...                  ...
         5        2.0000           -0.5471396             -14.8884
         6        2.0000           -0.5169525             -14.0670
         7        2.0000           -0.5012530             -13.6398
         8        2.0000           -0.4830325             -13.1440
         9        2.0000           -0.4741035             -12.9010
        10        2.0000           -0.4709300             -12.8147
        11        2.0000           -0.4616186             -12.5613
        12        2.0000           -0.4352517             -11.8438
        13        2.0000           -0.4269737             -11.6185
        14        2.0000           -0.4231351             -11.5141
        15        2.0000           -0.3999231             -10.8825
        16        2.0000           -0.3238948              -8.8136
        17        2.0000           -0.3233683              -8.7993 (HOMO)
        18                          0.1079782               2.9382 (LUMO)
        19                          0.1151001               3.1320
        20                          0.1320679               3.5938
        21                          0.1435896               3.9073
        22                          0.1639371               4.4610
        23                          0.1764388               4.8011
        24                          0.2076263               5.6498
        25                          0.2095578               5.7024
        26                          0.2620718               7.1313
        27                          0.2686690               7.3109
        28                          0.2962829               8.0623
        29                          0.3313339               9.0161
      -------------------------------------------------------------
                  HL-Gap            0.4313464 Eh           11.7375 eV

     #   Z          covCN         q      C6AA      α(0)
     1   6 C        3.797    -0.066    21.774     6.644
     2   6 C        3.666     0.162    18.220     6.121
     3   8 O        0.872    -0.832    32.547     7.649
     4   1 H        0.919    -0.090     5.239     3.580
     5   1 H        0.919    -0.086     5.108     3.535
     6   6 C        3.752    -0.105    22.566     6.774
     7   1 H        0.924     0.013     2.839     2.635
     8   1 H        0.924     0.019     2.747     2.592
     9   1 H        0.925     0.033     2.546     2.495
    10   1 H        0.925     0.048     2.342     2.393
    11   1 H        0.925     0.032     2.565     2.505
    12   8 O        1.593    -0.741    28.844     7.248
    13   1 H        0.806     0.291     0.749     1.359
    14   1 H        0.805     0.323     0.656     1.272

Wiberg/Mayer (AO) data.
largest (>0.10) Wiberg bond orders for each atom

     #   Z sym  total        # sym  WBO       # sym  WBO       # sym  WBO
 ---------------------------------------------------------------------------
     1   6 C    3.996 --     6 C    1.021     7 H    0.981     8 H    0.979
                             2 C    0.974
     2   6 C    3.982 --     3 O    1.097     1 C    0.974     5 H    0.949
                             4 H    0.946
     3   8 O    1.442 --     2 C    1.097    13 H    0.162
     4   1 H    0.992 --     2 C    0.946
     5   1 H    0.993 --     2 C    0.949
     6   6 C    3.998 --     1 C    1.021    11 H    0.988     9 H    0.988
                            10 H    0.986
     7   1 H    1.000 --     1 C    0.981
     8   1 H    1.000 --     1 C    0.979
     9   1 H    0.999 --     6 C    0.988
    10   1 H    0.998 --     6 C    0.986
    11   1 H    0.999 --     6 C    0.988
    12   8 O    1.721 --    14 H    0.895    13 H    0.749
    13   1 H    0.915 --    12 O    0.749     3 O    0.162
    14   1 H    0.896 --    12 O    0.895
 ---------------------------------------------------------------------------

molecular dipole:
                 x           y           z       tot (Debye)
 q only:        6.570       4.853       2.910
   full:        6.387       4.918       2.765      21.661

 projected vibrational frequencies (cm⁻¹)
eigval :       -0.00    -0.00    -0.00    -0.00    -0.00     0.00
eigval :       58.20    72.00   129.29   144.23   215.67   272.56
eigval :      368.89   466.66   659.75   778.78   902.58   906.45
eigval :     1000.06  1078.13  1084.45  1104.49  1166.73  1242.84
eigval :     1303.31  1308.39  1377.53  1393.72  1492.55  1499.33
eigval :     1502.97  1508.29  1572.94  2102.45  2456.97  2594.87
eigval :     2950.19  2973.81  3016.44  3022.03  3029.02  3615.82

   temp. (K)  partition function   enthalpy   heat capacity  entropy
                                   cal/mol     cal/K/mol   cal/K/mol   J/K/mol
 298.15  VIB   194.                 3171.795     18.726     20.522
         ROT  0.163E+06              888.752      2.981     26.828
         INT  0.315E+08             4060.547     21.707     47.350
         TR   0.655E+27             1481.254      4.968     38.925
         TOT                        5541.8013    26.6752    86.2751   360.9749

       T/K    H(0)-H(T)+PV         H(T)/Eh          T*S/Eh         G(T)/Eh
   ------------------------------------------------------------------------
    298.15    0.883142E-02    0.123588E+00    0.409921E-01    0.825961E-01
   ------------------------------------------------------------------------

         :::::::::::::::::::::::::::::::::::::::::::::::::::::
         ::                  THERMODYNAMIC                  ::
         :::::::::::::::::::::::::::::::::::::::::::::::::::::
         :: total free energy         -19.339434783263 Eh   ::
         ::.................................................::
         :: total energy              -19.422030861161 Eh   ::
         :: zero point energy           0.114756721326 Eh   ::
         :: G(RRHO) w/o ZPVE           -0.032160643428 Eh   ::
         :: G(RRHO) contrib.            0.082596077898 Eh   ::
         :::::::::::::::::::::::::::::::::::::::::::::::::::::

           -------------------------------------------------
          | TOTAL ENERGY              -19.422030861161 Eh   |
          | TOTAL ENTHALPY            -19.298442717330 Eh   |
          | TOTAL FREE ENERGY         -19.339434783263 Eh   |
          | GRADIENT NORM               0.000721063136 Eh/α |
          | HOMO-LUMO GAP              11.737534056712 eV   |
           -------------------------------------------------

 * finished run on 2025/10/18 at 00:45:27.063
normal termination of xtb
