   * xtb version 6.7.1 (edcfbbe) compiled by 'albert@albert-system' on 2024-07-22

   ID    Z sym.   atoms
    1    6 C      1, 2, 6
    2    8 O      3
    3    1 H      4, 5, 7-11

          program call               : xtb tb_lite_results_shiftn0p2_gp186_b0_rot0_solute.xyz --ohess --chrg -1
          :  Hamiltonian                  GFN2-xTB          :
 * total energy  :   -14.2018100 Eh     change       -0.1145750E-09 Eh
 * total energy  :   -14.2040813 Eh     change       -0.2271307E-02 Eh
 * total energy  :   -14.2047406 Eh     change       -0.6593718E-03 Eh
 * total energy  :   -14.2049147 Eh     change       -0.1740632E-03 Eh
 * total energy  :   -14.2049447 Eh     change       -0.2995690E-04 Eh
 * total energy  :   -14.2049464 Eh     change       -0.1757468E-05 Eh
   *** GEOMETRY OPTIMIZATION CONVERGED AFTER 6 ITERATIONS ***

 final structure:
================
11
 xtb: 6.7.1 (edcfbbe)
C           -3.37811801844683       -4.22556930628226       -2.97670527064263
C           -4.15772833425040       -2.91555435719791       -2.55834619656034
O           -3.46251908256161       -2.03945426114023       -1.90223022175795
H           -5.08926291445139       -3.31348540454289       -1.99402190396868
H           -4.60766081619987       -2.52754339928675       -3.55404614513265
C           -4.23524070854272       -5.21467806223685       -3.75272529424356
H           -2.51587171402490       -3.92336869358857       -3.57820234980674
H           -2.99705299409071       -4.69421566142773       -2.06463984075299
H           -4.60810402819904       -4.75359351902817       -4.66807394787037
H           -3.67405774994672       -6.11399445454622       -4.02554701613011
H           -5.09617185585067       -5.51705710599195       -3.15529598229850

          :  Hamiltonian                  GFN2-xTB          :
         :: gradient norm              0.000570224248 Eh/a0 ::
         :: HOMO-LUMO gap              9.625221698697 eV    ::
         :: SCC energy               -14.349284374343 Eh    ::
         :: -> dispersion             -0.005846617698 Eh    ::
         :: repulsion energy           0.144337962565 Eh    ::

    * Orbital Energies and Occupations

         #    Occupation            Energy/Eh            Energy/eV
      -------------------------------------------------------------
         1        2.0000           -0.4498947             -12.2423
         2        2.0000           -0.4024615             -10.9515
         3        2.0000           -0.3825738             -10.4104
         4        2.0000           -0.3526019              -9.5948
         5        2.0000           -0.3440137              -9.3611
         6        2.0000           -0.3216238              -8.7518
         7        2.0000           -0.2970352              -8.0827
         8        2.0000           -0.2861260              -7.7859
         9        2.0000           -0.2532762              -6.8920
        10        2.0000           -0.2455223              -6.6810
        11        2.0000           -0.2163708              -5.8878
        12        2.0000           -0.0931367              -2.5344
        13        2.0000           -0.0899492              -2.4476 (HOMO)
        14                          0.2637712               7.1776 (LUMO)
        15                          0.2928876               7.9699
        16                          0.2979818               8.1085
        17                          0.3039380               8.2706
        18                          0.3274277               8.9098
        19                          0.3581293               9.7452
        20                          0.3659663               9.9585
        21                          0.4039345              10.9916
        22                          0.4456920              12.1279
        23                          0.6175695              16.8049
      -------------------------------------------------------------
                  HL-Gap            0.3537203 Eh            9.6252 eV

     #   Z          covCN         q      C6AA      α(0)
     1   6 C        3.792    -0.066    21.766     6.644
     2   6 C        3.640     0.199    17.769     6.062
     3   8 O        0.855    -0.765    30.545     7.410
     4   1 H        0.908    -0.138     7.095     4.167
     5   1 H        0.908    -0.137     7.087     4.165
     6   6 C        3.749    -0.077    22.041     6.696
     7   1 H        0.924    -0.007     3.184     2.791
     8   1 H        0.924    -0.007     3.191     2.794
     9   1 H        0.924     0.005     2.966     2.693
    10   1 H        0.924    -0.012     3.283     2.833
    11   1 H        0.924     0.005     2.966     2.693

Wiberg/Mayer (AO) data.
largest (>0.10) Wiberg bond orders for each atom

     #   Z sym  total        # sym  WBO       # sym  WBO       # sym  WBO
 ---------------------------------------------------------------------------
     1   6 C    3.970 --     6 C    1.017     8 H    0.982     7 H    0.982
                             2 C    0.914
     2   6 C    3.975 --     3 O    1.233     1 C    0.914     5 H    0.907
                             4 H    0.907
     3   8 O    1.441 --     2 C    1.233
     4   1 H    0.981 --     2 C    0.907
     5   1 H    0.981 --     2 C    0.907
     6   6 C    3.995 --     1 C    1.017     9 H    0.988    11 H    0.988
                            10 H    0.987
     7   1 H    1.000 --     1 C    0.982
     8   1 H    1.000 --     1 C    0.982
     9   1 H    1.000 --     6 C    0.988
    10   1 H    1.000 --     6 C    0.987
    11   1 H    1.000 --     6 C    0.988
 ---------------------------------------------------------------------------

molecular dipole:
                 x           y           z       tot (Debye)
 q only:        7.062       4.812       4.238
   full:        6.857       4.427       3.980      23.080

 projected vibrational frequencies (cm⁻¹)
eigval :       -0.00     0.00     0.00     0.00     0.00     0.00
eigval :      126.92   203.07   271.40   459.85   751.99   821.44
eigval :      892.37  1024.17  1084.11  1149.71  1222.73  1240.27
eigval :     1286.03  1298.70  1386.77  1394.58  1504.52  1509.01
eigval :     1513.27  1520.52  2005.17  2249.44  2921.83  2935.41
eigval :     2956.49  2984.70  2994.46

   temp. (K)  partition function   enthalpy   heat capacity  entropy
                                   cal/mol     cal/K/mol   cal/K/mol   J/K/mol
 298.15  VIB   5.88                 1470.082     10.744      8.443
         ROT  0.434E+05              888.752      2.981     24.199
         INT  0.255E+06             2358.835     13.725     32.642
         TR   0.439E+27             1481.254      4.968     38.132
         TOT                        3840.0886    18.6931    70.7747   296.1215

       T/K    H(0)-H(T)+PV         H(T)/Eh          T*S/Eh         G(T)/Eh
   ------------------------------------------------------------------------
    298.15    0.611957E-02    0.965831E-01    0.336274E-01    0.629558E-01
   ------------------------------------------------------------------------

         :::::::::::::::::::::::::::::::::::::::::::::::::::::
         ::                  THERMODYNAMIC                  ::
         :::::::::::::::::::::::::::::::::::::::::::::::::::::
         :: total free energy         -14.141990638487 Eh   ::
         ::.................................................::
         :: total energy              -14.204946411778 Eh   ::
         :: zero point energy           0.090463567364 Eh   ::
         :: G(RRHO) w/o ZPVE           -0.027507794073 Eh   ::
         :: G(RRHO) contrib.            0.062955773292 Eh   ::
         :::::::::::::::::::::::::::::::::::::::::::::::::::::

           -------------------------------------------------
          | TOTAL ENERGY              -14.204946411778 Eh   |
          | TOTAL ENTHALPY            -14.108363273756 Eh   |
          | TOTAL FREE ENERGY         -14.141990638487 Eh   |
          | GRADIENT NORM               0.000570236103 Eh/α |
          | HOMO-LUMO GAP               9.625220202286 eV   |
           -------------------------------------------------

 * finished run on 2025/10/18 at 00:45:27.628
normal termination of xtb
