   * xtb version 6.7.1 (edcfbbe) compiled by 'albert@albert-system' on 2024-07-22

   ID    Z sym.   atoms
    1    6 C      1, 2, 6
    2    8 O      3, 12
    3    1 H      4, 5, 7-11, 13, 14

          program call               : xtb tb_lite_results_shiftn0p25_gp186_b0_rot90_complex.xyz --ohess --chrg -1 --alpb water
      * Solvation model:               ALPB
        Solvent                        water
        Solvent mass                       1.8000E+01 g/mol
          :  Hamiltonian                  GFN2-xTB          :
 * total energy  :   -19.4170476 Eh     change       -0.2434675E-10 Eh
 * total energy  :   -19.4212362 Eh     change       -0.4188649E-02 Eh
 * total energy  :   -19.4216473 Eh     change       -0.4110651E-03 Eh
 * total energy  :   -19.4218270 Eh     change       -0.1797037E-03 Eh
 * total energy  :   -19.4219968 Eh     change       -0.1697955E-03 Eh
 * total energy  :   -19.4220187 Eh     change       -0.2195484E-04 Eh
 * total energy  :   -19.4220269 Eh     change       -0.8107529E-05 Eh
 * total energy  :   -19.4220293 Eh     change       -0.2462593E-05 Eh
 * total energy  :   -19.4220336 Eh     change       -0.4248202E-05 Eh
 * total energy  :   -19.4220373 Eh     change       -0.3714836E-05 Eh
   *** GEOMETRY OPTIMIZATION CONVERGED AFTER 10 ITERATIONS ***

 final structure:
================
14
 xtb: 6.7.1 (edcfbbe)
C           -3.38988377013762       -4.22471309065892       -2.96804669295993
C           -4.17120106317142       -2.95187166827611       -2.57976220276750
O           -3.44480230565281       -2.03224243457421       -1.89832931254293
H           -5.07386107876481       -3.27187325783908       -1.98984006053053
H           -4.57849733461829       -2.49466635007705       -3.52070497725026
C           -4.23715689541017       -5.21676170726664       -3.74899052509889
H           -2.52193624210063       -3.91065461728061       -3.55335098488066
H           -3.02089179674264       -4.67151335995789       -2.04190729353224
H           -4.59935190145147       -4.75678519622948       -4.66591798090926
H           -3.65252224028022       -6.09778929522721       -4.00065268270684
H           -5.09535585074337       -5.51966477977589       -3.15330337658513
O           -2.38367104730087       -3.09295161159926        0.15561618457569
H           -2.84230972939423       -2.66690948874621       -0.67085147556259
H           -1.60285568017812       -2.54710836857738        0.28807589806870

          :  Hamiltonian                  GFN2-xTB          :
         :: gradient norm              0.000412026503 Eh/a0 ::
         :: HOMO-LUMO gap             11.757840737589 eV    ::
         :: SCC energy               -19.595727332197 Eh    ::
         :: -> dispersion             -0.007133972780 Eh    ::
         :: -> Gsolv                  -0.120059170124 Eh    ::
         :: repulsion energy           0.173690055602 Eh    ::

    * Orbital Energies and Occupations

         #    Occupation            Energy/Eh            Energy/eV
      -------------------------------------------------------------
         1        2.0000           -0.6362832             -17.3141
       ...           ...                  ...                  ...
         5        2.0000           -0.5472342             -14.8910
         6        2.0000           -0.5169145             -14.0660
         7        2.0000           -0.5014586             -13.6454
         8        2.0000           -0.4830652             -13.1449
         9        2.0000           -0.4735303             -12.8854
        10        2.0000           -0.4714343             -12.8284
        11        2.0000           -0.4619039             -12.5690
        12        2.0000           -0.4354162             -11.8483
        13        2.0000           -0.4269908             -11.6190
        14        2.0000           -0.4235730             -11.5260
        15        2.0000           -0.3997856             -10.8787
        16        2.0000           -0.3239020              -8.8138
        17        2.0000           -0.3233680              -8.7993 (HOMO)
        18                          0.1087247               2.9585 (LUMO)
        19                          0.1153996               3.1402
        20                          0.1317937               3.5863
        21                          0.1434189               3.9026
        22                          0.1641892               4.4678
        23                          0.1762872               4.7970
        24                          0.2072367               5.6392
        25                          0.2099690               5.7135
        26                          0.2623130               7.1379
        27                          0.2687684               7.3136
        28                          0.2966689               8.0728
        29                          0.3311702               9.0116
      -------------------------------------------------------------
                  HL-Gap            0.4320927 Eh           11.7578 eV

     #   Z          covCN         q      C6AA      α(0)
     1   6 C        3.797    -0.067    21.779     6.645
     2   6 C        3.666     0.163    18.214     6.120
     3   8 O        0.871    -0.832    32.559     7.651
     4   1 H        0.919    -0.092     5.291     3.597
     5   1 H        0.919    -0.087     5.119     3.538
     6   6 C        3.752    -0.105    22.567     6.775
     7   1 H        0.924     0.014     2.827     2.629
     8   1 H        0.924     0.020     2.729     2.583
     9   1 H        0.925     0.033     2.550     2.497
    10   1 H        0.925     0.048     2.340     2.392
    11   1 H        0.925     0.031     2.571     2.508
    12   8 O        1.593    -0.741    28.840     7.247
    13   1 H        0.805     0.291     0.748     1.358
    14   1 H        0.805     0.323     0.655     1.272

Wiberg/Mayer (AO) data.
largest (>0.10) Wiberg bond orders for each atom

     #   Z sym  total        # sym  WBO       # sym  WBO       # sym  WBO
 ---------------------------------------------------------------------------
     1   6 C    3.996 --     6 C    1.021     7 H    0.981     8 H    0.979
                             2 C    0.974
     2   6 C    3.982 --     3 O    1.097     1 C    0.974     5 H    0.949
                             4 H    0.946
     3   8 O    1.442 --     2 C    1.097    13 H    0.161
     4   1 H    0.992 --     2 C    0.946
     5   1 H    0.992 --     2 C    0.949
     6   6 C    3.998 --     1 C    1.021    11 H    0.988     9 H    0.988
                            10 H    0.986
     7   1 H    1.000 --     1 C    0.981
     8   1 H    1.000 --     1 C    0.979
     9   1 H    0.999 --     6 C    0.988
    10   1 H    0.998 --     6 C    0.986
    11   1 H    0.999 --     6 C    0.988
    12   8 O    1.722 --    14 H    0.895    13 H    0.749
    13   1 H    0.915 --    12 O    0.749     3 O    0.161
    14   1 H    0.896 --    12 O    0.895
 ---------------------------------------------------------------------------

molecular dipole:
                 x           y           z       tot (Debye)
 q only:        6.729       4.683       2.810
   full:        6.624       4.717       2.607      21.705

 projected vibrational frequencies (cm⁻¹)
eigval :       -0.00    -0.00    -0.00     0.00     0.00     0.00
eigval :       57.85    64.45    74.07   146.87   212.70   269.68
eigval :      368.81   469.72   643.30   778.74   902.41   906.66
eigval :     1021.79  1079.28  1084.28  1105.19  1166.95  1242.98
eigval :     1303.03  1307.70  1377.22  1393.36  1492.16  1498.71
eigval :     1502.73  1508.03  1565.68  2107.63  2453.16  2592.47
eigval :     2951.43  2975.13  3018.66  3023.65  3030.37  3622.60

   temp. (K)  partition function   enthalpy   heat capacity  entropy
                                   cal/mol     cal/K/mol   cal/K/mol   J/K/mol
 298.15  VIB   331.                 3251.821     18.556     21.601
         ROT  0.162E+06              888.752      2.981     26.823
         INT  0.537E+08             4140.573     21.537     48.424
         TR   0.655E+27             1481.254      4.968     38.925
         TOT                        5621.8274    26.5047    87.3488   365.4674

       T/K    H(0)-H(T)+PV         H(T)/Eh          T*S/Eh         G(T)/Eh
   ------------------------------------------------------------------------
    298.15    0.895895E-02    0.123595E+00    0.415022E-01    0.820928E-01
   ------------------------------------------------------------------------

         :::::::::::::::::::::::::::::::::::::::::::::::::::::
         ::                  THERMODYNAMIC                  ::
         :::::::::::::::::::::::::::::::::::::::::::::::::::::
         :: total free energy         -19.339944429735 Eh   ::
         ::.................................................::
         :: total energy              -19.422037276146 Eh   ::
         :: zero point energy           0.114636129138 Eh   ::
         :: G(RRHO) w/o ZPVE           -0.032543282726 Eh   ::
         :: G(RRHO) contrib.            0.082092846412 Eh   ::
         :::::::::::::::::::::::::::::::::::::::::::::::::::::

           -------------------------------------------------
          | TOTAL ENERGY              -19.422037276146 Eh   |
          | TOTAL ENTHALPY            -19.298442194768 Eh   |
          | TOTAL FREE ENERGY         -19.339944429735 Eh   |
          | GRADIENT NORM               0.000411861351 Eh/α |
          | HOMO-LUMO GAP              11.757841509662 eV   |
           -------------------------------------------------

 * finished run on 2025/10/18 at 00:45:24.605
normal termination of xtb
