   * xtb version 6.7.1 (edcfbbe) compiled by 'albert@albert-system' on 2024-07-22

   ID    Z sym.   atoms
    1    6 C      1-6
    2    8 O      7, 8, 13, 15
    3    1 H      9, 10, 12, 16, 17
    4    7 N      11, 14

          program call               : xtb tb_lite_results_shiftn0p05_gp455_b0_rot270_complex.xyz --ohess --chrg -1 --alpb water
      * Solvation model:               ALPB
        Solvent                        water
        Solvent mass                       1.8000E+01 g/mol
          :  Hamiltonian                  GFN2-xTB          :
 * total energy  :   -37.5603504 Eh     change       -0.2977295E-08 Eh
 * total energy  :   -37.6284692 Eh     change       -0.6811878E-01 Eh
 * total energy  :   -37.6315428 Eh     change       -0.3073633E-02 Eh
 * total energy  :   -37.6323448 Eh     change       -0.8019518E-03 Eh
 * total energy  :   -37.6324667 Eh     change       -0.1219224E-03 Eh
 * total energy  :   -37.6325812 Eh     change       -0.1145380E-03 Eh
 * total energy  :   -37.6326497 Eh     change       -0.6843192E-04 Eh
 * total energy  :   -37.6327263 Eh     change       -0.7664040E-04 Eh
 * total energy  :   -37.6328279 Eh     change       -0.1015642E-03 Eh
 * total energy  :   -37.6329609 Eh     change       -0.1330552E-03 Eh
 * total energy  :   -37.6331624 Eh     change       -0.2274756E-04 Eh
 * total energy  :   -37.6331821 Eh     change       -0.1964654E-04 Eh
 * total energy  :   -37.6331956 Eh     change       -0.1354421E-04 Eh
 * total energy  :   -37.6332045 Eh     change       -0.8920513E-05 Eh
 * total energy  :   -37.6332182 Eh     change       -0.1366866E-04 Eh
 * total energy  :   -37.6332159 Eh     change        0.2280209E-05 Eh
 * total energy  :   -37.6332267 Eh     change       -0.1081637E-04 Eh
 * total energy  :   -37.6332262 Eh     change        0.5150495E-06 Eh
 * total energy  :   -37.6332292 Eh     change       -0.2951148E-05 Eh
   *** GEOMETRY OPTIMIZATION CONVERGED AFTER 24 ITERATIONS ***

 final structure:
================
17
 xtb: 6.7.1 (edcfbbe)
C           -2.00560181056903       -2.83453579025342        1.56341166000532
C           -2.50651755432974       -2.23231712163841        0.35669103159893
C           -3.68335124854038       -2.57862381371196       -0.21111553270131
C           -4.49378144450222       -3.58434297474346        0.38434528703016
C           -4.10355162139328       -4.21953213984847        1.53903730105491
C           -2.87186812289107       -3.91044628127898        2.20708623031743
O           -6.41929282282331       -4.79546942738184        0.28578520279857
O           -0.92736880838879       -2.50331716343659        2.06160901505279
H           -1.87536738247596       -1.47218568971774       -0.07855813973251
H           -4.03977046987053       -2.11277467630266       -1.11693047433428
N           -5.70478510109913       -3.92134118872557       -0.22672816199818
H           -4.72973920015200       -4.98039672222638        1.97854602891176
O           -6.03982928923953       -3.33902168826690       -1.26909391360428
N           -2.49775463645396       -4.47854521626999        3.26980900704977
O           -0.11008732911383       -3.76966022801850        4.53338327557564
H            0.05520320662705       -3.14411837311033        3.81560395765301
H           -0.96514923010765       -4.17520714154899        4.28810675099829

          :  Hamiltonian                  GFN2-xTB          :
         :: gradient norm              0.000271990625 Eh/a0 ::
         :: HOMO-LUMO gap              0.025401145305 eV    ::
         :: SCC energy               -38.008875153006 Eh    ::
         :: -> dispersion             -0.015275308834 Eh    ::
         :: -> Gsolv                  -0.083526925701 Eh    ::
         :: repulsion energy           0.375645968633 Eh    ::

    * Orbital Energies and Occupations

         #    Occupation            Energy/Eh            Energy/eV
      -------------------------------------------------------------
         1        2.0000           -0.7561823             -20.5768
       ...           ...                  ...                  ...
        20        2.0000           -0.4888829             -13.3032
        21        2.0000           -0.4853315             -13.2065
        22        2.0000           -0.4807535             -13.0820
        23        2.0000           -0.4676943             -12.7266
        24        2.0000           -0.4642808             -12.6337
        25        2.0000           -0.4571380             -12.4394
        26        2.0000           -0.4436090             -12.0712
        27        2.0000           -0.4398255             -11.9683
        28        2.0000           -0.4237520             -11.5309
        29        2.0000           -0.4170884             -11.3496
        30        2.0000           -0.4099282             -11.1547
        31        2.0000           -0.3976099             -10.8195
        32        1.2408           -0.3399909              -9.2516 (HOMO)
        33        0.7592           -0.3390576              -9.2262 (LUMO)
        34                         -0.3105669              -8.4510
        35                         -0.2183891              -5.9427
        36                         -0.2041864              -5.5562
        37                         -0.1022668              -2.7828
        38                          0.0113248               0.3082
        39                          0.0809085               2.2016
        40                          0.1311001               3.5674
        41                          0.1381095               3.7582
        42                          0.1452809               3.9533
        43                          0.1702215               4.6320
       ...                                ...                  ...
        53                          0.7104222              19.3316
      -------------------------------------------------------------
                  HL-Gap            0.0009333 Eh            0.0254 eV

     #   Z          covCN         q      C6AA      α(0)
     1   6 C        2.825     0.216    23.450     7.935
     2   6 C        2.906    -0.070    29.745     8.943
     3   6 C        2.908    -0.021    28.530     8.758
     4   6 C        2.902     0.005    27.920     8.664
     5   6 C        2.914    -0.044    29.098     8.846
     6   6 C        2.875     0.093    25.925     8.347
     7   8 O        0.929    -0.502    23.779     6.540
     8   8 O        0.858    -0.459    22.901     6.416
     9   1 H        0.926     0.078     1.997     2.210
    10   1 H        0.926     0.088     1.903     2.157
    11   7 N        2.764     0.502    14.002     5.558
    12   1 H        0.926     0.068     2.108     2.270
    13   8 O        0.929    -0.493    23.601     6.515
    14   7 N        0.924    -0.428    31.055     8.052
    15   8 O        1.608    -0.670    26.937     7.005
    16   1 H        0.805     0.321     0.661     1.277
    17   1 H        0.803     0.317     0.673     1.288

Wiberg/Mayer (AO) data.
largest (>0.10) Wiberg bond orders for each atom

     #   Z sym  total        # sym  WBO       # sym  WBO       # sym  WBO
 ---------------------------------------------------------------------------
     1   6 C    3.805 --     8 O    1.649     2 C    1.144     6 C    0.913
     2   6 C    3.932 --     3 C    1.650     1 C    1.144     9 H    0.957
     3   6 C    3.939 --     2 C    1.650     4 C    1.187    10 H    0.957
     4   6 C    3.920 --     5 C    1.446     3 C    1.187    11 N    1.063
     5   6 C    3.688 --     4 C    1.446     6 C    1.146    12 H    0.960
     6   6 C    3.943 --    14 N    1.786     5 C    1.146     1 C    0.913
     7   8 O    1.742 --    11 N    1.343    13 O    0.265
     8   8 O    1.885 --     1 C    1.649
     9   1 H    0.986 --     2 C    0.957
    10   1 H    0.991 --     3 C    0.957
    11   7 N    3.807 --     7 O    1.343    13 O    1.340     4 C    1.063
    12   1 H    0.992 --     5 C    0.960
    13   8 O    1.736 --    11 N    1.340     7 O    0.265
    14   7 N    1.981 --     6 C    1.786
    15   8 O    1.757 --    16 H    0.883    17 H    0.852
    16   1 H    0.897 --    15 O    0.883
    17   1 H    0.899 --    15 O    0.852
 ---------------------------------------------------------------------------

molecular dipole:
                 x           y           z       tot (Debye)
 q only:        6.624       7.764      -3.675
   full:        6.254       7.910      -4.200      27.765

 projected vibrational frequencies (cm⁻¹)
eigval :       -0.00    -0.00    -0.00     0.00     0.00     0.00
eigval :       20.41    47.64    70.93    92.42   122.56   127.53
eigval :      198.51   230.36   258.57   325.57   340.13   371.94
eigval :      416.46   438.84   459.69   516.31   580.40   591.38
eigval :      603.08   635.06   693.60   729.76   745.51   762.97
eigval :      816.71   902.43   934.76  1094.29  1096.58  1136.61
eigval :     1176.40  1254.89  1264.10  1372.70  1473.61  1490.21
eigval :     1505.50  1551.98  1568.89  1600.87  3087.31  3101.12
eigval :     3103.05  3257.72  3535.73

   temp. (K)  partition function   enthalpy   heat capacity  entropy
                                   cal/mol     cal/K/mol   cal/K/mol   J/K/mol
 298.15  VIB  0.376E+05             6090.451     36.079     38.281
         ROT  0.130E+07              888.752      2.981     30.958
         INT  0.489E+11             6979.203     39.060     69.239
         TR   0.213E+28             1481.254      4.968     41.265
         TOT                        8460.4572    44.0280   110.5045   462.3509

       T/K    H(0)-H(T)+PV         H(T)/Eh          T*S/Eh         G(T)/Eh
   ------------------------------------------------------------------------
    298.15    0.134826E-01    0.117606E+00    0.525043E-01    0.651022E-01
   ------------------------------------------------------------------------

         :::::::::::::::::::::::::::::::::::::::::::::::::::::
         ::                  THERMODYNAMIC                  ::
         :::::::::::::::::::::::::::::::::::::::::::::::::::::
         :: total free energy         -37.568127014169 Eh   ::
         ::.................................................::
         :: total energy              -37.633229184115 Eh   ::
         :: zero point energy           0.104123830247 Eh   ::
         :: G(RRHO) w/o ZPVE           -0.039021660301 Eh   ::
         :: G(RRHO) contrib.            0.065102169946 Eh   ::
         :::::::::::::::::::::::::::::::::::::::::::::::::::::

           -------------------------------------------------
          | TOTAL ENERGY              -37.633229184115 Eh   |
          | TOTAL ENTHALPY            -37.515622757187 Eh   |
          | TOTAL FREE ENERGY         -37.568127014169 Eh   |
          | GRADIENT NORM               0.000271890378 Eh/α |
          | HOMO-LUMO GAP               0.025397450098 eV   |
           -------------------------------------------------

 * finished run on 2025/10/18 at 05:26:25.988
normal termination of xtb
