   * xtb version 6.7.1 (edcfbbe) compiled by 'albert@albert-system' on 2024-07-22

   ID    Z sym.   atoms
    1    6 C      1-6
    2    8 O      7, 8, 13, 15
    3    1 H      9, 10, 12, 16, 17
    4    7 N      11, 14

          program call               : xtb tb_lite_results_original_gp455_b0_rot270_complex.xyz --ohess --chrg -1 --alpb water
      * Solvation model:               ALPB
        Solvent                        water
        Solvent mass                       1.8000E+01 g/mol
          :  Hamiltonian                  GFN2-xTB          :
 * total energy  :   -37.5606213 Eh     change       -0.2523905E-08 Eh
 * total energy  :   -37.6285669 Eh     change       -0.6794561E-01 Eh
 * total energy  :   -37.6315625 Eh     change       -0.2995596E-02 Eh
 * total energy  :   -37.6323417 Eh     change       -0.7791495E-03 Eh
 * total energy  :   -37.6324605 Eh     change       -0.1188600E-03 Eh
 * total energy  :   -37.6325700 Eh     change       -0.1095057E-03 Eh
 * total energy  :   -37.6326408 Eh     change       -0.7075599E-04 Eh
 * total energy  :   -37.6327096 Eh     change       -0.6878822E-04 Eh
 * total energy  :   -37.6328111 Eh     change       -0.1015327E-03 Eh
 * total energy  :   -37.6328978 Eh     change       -0.8668817E-04 Eh
 * total energy  :   -37.6330768 Eh     change       -0.4434878E-04 Eh
 * total energy  :   -37.6331152 Eh     change       -0.3840518E-04 Eh
 * total energy  :   -37.6331473 Eh     change       -0.3211933E-04 Eh
 * total energy  :   -37.6331654 Eh     change       -0.1802115E-04 Eh
 * total energy  :   -37.6331797 Eh     change       -0.1430463E-04 Eh
 * total energy  :   -37.6332009 Eh     change       -0.2124060E-04 Eh
 * total energy  :   -37.6332146 Eh     change       -0.1367146E-04 Eh
 * total energy  :   -37.6332244 Eh     change       -0.9827545E-05 Eh
 * total energy  :   -37.6332290 Eh     change       -0.4579966E-05 Eh
   *** GEOMETRY OPTIMIZATION CONVERGED AFTER 22 ITERATIONS ***

 final structure:
================
17
 xtb: 6.7.1 (edcfbbe)
C           -2.01044944404939       -2.82851951624173        1.58168323616210
C           -2.50967987716223       -2.22524542650416        0.37532757947416
C           -3.68240657429968       -2.57618408879590       -0.19838136636905
C           -4.48939398300233       -3.58837454129063        0.39017479921494
C           -4.09994773773261       -4.22577534736932        1.54398375055050
C           -2.87234598342870       -3.91227719235158        2.21805269732927
O           -6.40767605616569       -4.80998021163330        0.27895197020782
O           -0.93640839456160       -2.49139449346909        2.08561379521815
H           -1.88109087422258       -1.46014387968436       -0.05483333433169
H           -4.03712434861399       -2.10876677089067       -1.10402712831062
N           -5.69601048849026       -3.92975826465162       -0.22711448189400
H           -4.72317734645543       -4.99204064731986        1.97825310406577
O           -6.03025405208462       -3.34504375509432       -1.26841594336417
N           -2.49829499970471       -4.48274751628237        3.27940759012377
O           -0.08446253898604       -3.78255086222087        4.52014742049718
H            0.03863557011204       -3.14882635632721        3.80023200095305
H           -0.93917231548906       -4.20356018733895        4.30624833330979

          :  Hamiltonian                  GFN2-xTB          :
         :: gradient norm              0.000449045722 Eh/a0 ::
         :: HOMO-LUMO gap              0.025125201914 eV    ::
         :: SCC energy               -38.008929541170 Eh    ::
         :: -> dispersion             -0.015276265444 Eh    ::
         :: -> Gsolv                  -0.083455510881 Eh    ::
         :: repulsion energy           0.375700565429 Eh    ::

    * Orbital Energies and Occupations

         #    Occupation            Energy/Eh            Energy/eV
      -------------------------------------------------------------
         1        2.0000           -0.7561538             -20.5760
       ...           ...                  ...                  ...
        20        2.0000           -0.4889940             -13.3062
        21        2.0000           -0.4852979             -13.2056
        22        2.0000           -0.4808149             -13.0836
        23        2.0000           -0.4676130             -12.7244
        24        2.0000           -0.4642594             -12.6331
        25        2.0000           -0.4570694             -12.4375
        26        2.0000           -0.4435884             -12.0707
        27        2.0000           -0.4398123             -11.9679
        28        2.0000           -0.4237843             -11.5318
        29        2.0000           -0.4172446             -11.3538
        30        2.0000           -0.4099044             -11.1541
        31        2.0000           -0.3976753             -10.8213
        32        1.2383           -0.3399461              -9.2504 (HOMO)
        33        0.7617           -0.3390229              -9.2253 (LUMO)
        34                         -0.3106005              -8.4519
        35                         -0.2183734              -5.9422
        36                         -0.2041340              -5.5548
        37                         -0.1022309              -2.7818
        38                          0.0113250               0.3082
        39                          0.0809560               2.2029
        40                          0.1309258               3.5627
        41                          0.1381575               3.7595
        42                          0.1454328               3.9574
        43                          0.1704544               4.6383
       ...                                ...                  ...
        53                          0.7103171              19.3287
      -------------------------------------------------------------
                  HL-Gap            0.0009232 Eh            0.0251 eV

     #   Z          covCN         q      C6AA      α(0)
     1   6 C        2.825     0.216    23.449     7.935
     2   6 C        2.906    -0.070    29.746     8.943
     3   6 C        2.908    -0.021    28.530     8.758
     4   6 C        2.902     0.005    27.920     8.664
     5   6 C        2.914    -0.044    29.102     8.846
     6   6 C        2.875     0.093    25.927     8.347
     7   8 O        0.929    -0.502    23.781     6.540
     8   8 O        0.858    -0.460    22.918     6.418
     9   1 H        0.926     0.078     1.998     2.211
    10   1 H        0.926     0.087     1.904     2.158
    11   7 N        2.764     0.502    14.003     5.558
    12   1 H        0.926     0.068     2.109     2.271
    13   8 O        0.929    -0.493    23.603     6.515
    14   7 N        0.924    -0.427    31.042     8.050
    15   8 O        1.608    -0.670    26.930     7.004
    16   1 H        0.805     0.321     0.662     1.278
    17   1 H        0.803     0.318     0.670     1.286

Wiberg/Mayer (AO) data.
largest (>0.10) Wiberg bond orders for each atom

     #   Z sym  total        # sym  WBO       # sym  WBO       # sym  WBO
 ---------------------------------------------------------------------------
     1   6 C    3.805 --     8 O    1.647     2 C    1.145     6 C    0.913
     2   6 C    3.932 --     3 C    1.649     1 C    1.145     9 H    0.957
     3   6 C    3.938 --     2 C    1.649     4 C    1.187    10 H    0.958
     4   6 C    3.920 --     5 C    1.446     3 C    1.187    11 N    1.063
     5   6 C    3.688 --     4 C    1.446     6 C    1.146    12 H    0.960
     6   6 C    3.943 --    14 N    1.786     5 C    1.146     1 C    0.913
     7   8 O    1.742 --    11 N    1.342    13 O    0.265
     8   8 O    1.885 --     1 C    1.647
     9   1 H    0.986 --     2 C    0.957
    10   1 H    0.991 --     3 C    0.958
    11   7 N    3.807 --     7 O    1.342    13 O    1.340     4 C    1.063
    12   1 H    0.992 --     5 C    0.960
    13   8 O    1.736 --    11 N    1.340     7 O    0.265
    14   7 N    1.976 --     6 C    1.786
    15   8 O    1.758 --    16 H    0.881    17 H    0.855
    16   1 H    0.897 --    15 O    0.881
    17   1 H    0.898 --    15 O    0.855
 ---------------------------------------------------------------------------

molecular dipole:
                 x           y           z       tot (Debye)
 q only:        6.595       7.763      -3.661
   full:        6.218       7.908      -4.182      27.691

 projected vibrational frequencies (cm⁻¹)
eigval :       -0.00    -0.00    -0.00     0.00     0.00     0.00
eigval :       11.00    46.28    70.52    89.75   121.11   123.52
eigval :      186.35   222.26   258.61   321.72   340.11   370.74
eigval :      416.42   437.97   459.76   516.01   566.66   591.26
eigval :      603.19   635.20   693.32   729.50   745.85   762.85
eigval :      817.19   902.94   934.68  1094.37  1096.59  1135.50
eigval :     1176.64  1254.54  1263.83  1372.78  1473.51  1490.07
eigval :     1504.46  1551.87  1568.45  1600.19  3087.78  3101.38
eigval :     3102.91  3285.66  3523.01

   temp. (K)  partition function   enthalpy   heat capacity  entropy
                                   cal/mol     cal/K/mol   cal/K/mol   J/K/mol
 298.15  VIB  0.797E+05             6144.455     36.087     39.218
         ROT  0.130E+07              888.752      2.981     30.957
         INT  0.104E+12             7033.207     39.068     70.175
         TR   0.213E+28             1481.254      4.968     41.265
         TOT                        8514.4610    44.0365   111.4402   466.2658

       T/K    H(0)-H(T)+PV         H(T)/Eh          T*S/Eh         G(T)/Eh
   ------------------------------------------------------------------------
    298.15    0.135687E-01    0.117586E+00    0.529488E-01    0.646371E-01
   ------------------------------------------------------------------------

         :::::::::::::::::::::::::::::::::::::::::::::::::::::
         ::                  THERMODYNAMIC                  ::
         :::::::::::::::::::::::::::::::::::::::::::::::::::::
         :: total free energy         -37.568591864062 Eh   ::
         ::.................................................::
         :: total energy              -37.633228975403 Eh   ::
         :: zero point energy           0.104017291629 Eh   ::
         :: G(RRHO) w/o ZPVE           -0.039380180289 Eh   ::
         :: G(RRHO) contrib.            0.064637111340 Eh   ::
         :::::::::::::::::::::::::::::::::::::::::::::::::::::

           -------------------------------------------------
          | TOTAL ENERGY              -37.633228975403 Eh   |
          | TOTAL ENTHALPY            -37.515643026532 Eh   |
          | TOTAL FREE ENERGY         -37.568591864062 Eh   |
          | GRADIENT NORM               0.000448633649 Eh/α |
          | HOMO-LUMO GAP               0.025120879158 eV   |
           -------------------------------------------------

 * finished run on 2025/10/18 at 05:26:22.697
normal termination of xtb
