   * xtb version 6.7.1 (edcfbbe) compiled by 'albert@albert-system' on 2024-07-22

   ID    Z sym.   atoms
    1    6 C      1-6
    2    8 O      7, 8, 13, 15
    3    1 H      9, 10, 12, 16, 17
    4    7 N      11, 14

          program call               : xtb tb_lite_results_original_gp461_b0_rot0_complex.xyz --ohess --chrg -1 --alpb water
      * Solvation model:               ALPB
        Solvent                        water
        Solvent mass                       1.8000E+01 g/mol
          :  Hamiltonian                  GFN2-xTB          :
 * total energy  :   -37.5594262 Eh     change       -0.5184120E-10 Eh
 * total energy  :   -37.6270464 Eh     change       -0.6762017E-01 Eh
 * total energy  :   -37.6305097 Eh     change       -0.3463292E-02 Eh
 * total energy  :   -37.6316602 Eh     change       -0.1150502E-02 Eh
 * total energy  :   -37.6318436 Eh     change       -0.1834384E-03 Eh
 * total energy  :   -37.6320796 Eh     change       -0.2359486E-03 Eh
 * total energy  :   -37.6321775 Eh     change       -0.9789327E-04 Eh
 * total energy  :   -37.6322323 Eh     change       -0.5488746E-04 Eh
 * total energy  :   -37.6322733 Eh     change       -0.4095800E-04 Eh
 * total energy  :   -37.6323364 Eh     change       -0.6307545E-04 Eh
 * total energy  :   -37.6329209 Eh     change       -0.1212688E-03 Eh
 * total energy  :   -37.6329708 Eh     change       -0.4991640E-04 Eh
 * total energy  :   -37.6330280 Eh     change       -0.5723052E-04 Eh
 * total energy  :   -37.6330735 Eh     change       -0.4544544E-04 Eh
 * total energy  :   -37.6330673 Eh     change        0.6168344E-05 Eh
 * total energy  :   -37.6331380 Eh     change       -0.7073601E-04 Eh
 * total energy  :   -37.6331495 Eh     change       -0.1147846E-04 Eh
 * total energy  :   -37.6331582 Eh     change       -0.8628478E-05 Eh
 * total energy  :   -37.6331622 Eh     change       -0.4031452E-05 Eh
   *** GEOMETRY OPTIMIZATION CONVERGED AFTER 25 ITERATIONS ***

 final structure:
================
17
 xtb: 6.7.1 (edcfbbe)
C           -2.05026949252732       -2.97612580735172        1.55687473541312
C           -2.62535467847208       -2.13495605933036        0.54151838311131
C           -3.81711497059791       -2.38924968464713       -0.04373606544070
C           -4.57128417887780       -3.53161444802323        0.34220295146973
C           -4.11079616921902       -4.39365475510607        1.30865429626154
C           -2.85211088355031       -4.20374814256419        1.97088363464110
O           -6.46962698168430       -4.75579439128543        0.05731811082422
O           -0.95932538625998       -2.72453834418963        2.07433476908797
H           -2.03628573140675       -1.27332781666693        0.26551469901874
H           -4.22794033803938       -1.74662067490090       -0.80715494195338
N           -5.79908963897031       -3.76949691997851       -0.28188128832828
H           -4.69486033184223       -5.25645738529122        1.58911675608923
O           -6.19197340555879       -2.99002945049218       -1.16270406859357
N           -2.40346316735299       -4.99128675616908        2.84894125667141
O            0.28489173041164       -4.82933156108255        3.61831480226533
H            0.30903505167070       -3.96083598809158        3.19428778329673
H           -0.64369087233592       -5.11115223464441        3.50578684634748

          :  Hamiltonian                  GFN2-xTB          :
         :: gradient norm              0.000377501242 Eh/a0 ::
         :: HOMO-LUMO gap              0.025203218986 eV    ::
         :: SCC energy               -38.008738818443 Eh    ::
         :: -> dispersion             -0.015287333067 Eh    ::
         :: -> Gsolv                  -0.083538471045 Eh    ::
         :: repulsion energy           0.375576631618 Eh    ::

    * Orbital Energies and Occupations

         #    Occupation            Energy/Eh            Energy/eV
      -------------------------------------------------------------
         1        2.0000           -0.7561220             -20.5751
       ...           ...                  ...                  ...
        20        2.0000           -0.4891863             -13.3114
        21        2.0000           -0.4851553             -13.2017
        22        2.0000           -0.4809960             -13.0886
        23        2.0000           -0.4676746             -12.7261
        24        2.0000           -0.4642346             -12.6325
        25        2.0000           -0.4569158             -12.4333
        26        2.0000           -0.4435855             -12.0706
        27        2.0000           -0.4397686             -11.9667
        28        2.0000           -0.4237368             -11.5305
        29        2.0000           -0.4179276             -11.3724
        30        2.0000           -0.4098310             -11.1521
        31        2.0000           -0.3975768             -10.8186
        32        1.2391           -0.3399194              -9.2497 (HOMO)
        33        0.7609           -0.3389927              -9.2245 (LUMO)
        34                         -0.3105426              -8.4503
        35                         -0.2183691              -5.9421
        36                         -0.2041625              -5.5555
        37                         -0.1022418              -2.7821
        38                          0.0113895               0.3099
        39                          0.0811922               2.2094
        40                          0.1311374               3.5684
        41                          0.1377419               3.7481
        42                          0.1454006               3.9566
        43                          0.1701014               4.6287
       ...                                ...                  ...
        53                          0.7098772              19.3167
      -------------------------------------------------------------
                  HL-Gap            0.0009266 Eh            0.0252 eV

     #   Z          covCN         q      C6AA      α(0)
     1   6 C        2.826     0.216    23.450     7.935
     2   6 C        2.906    -0.070    29.744     8.943
     3   6 C        2.908    -0.021    28.531     8.759
     4   6 C        2.902     0.005    27.922     8.664
     5   6 C        2.914    -0.044    29.101     8.846
     6   6 C        2.875     0.093    25.926     8.347
     7   8 O        0.929    -0.502    23.783     6.540
     8   8 O        0.858    -0.460    22.920     6.419
     9   1 H        0.926     0.078     1.999     2.211
    10   1 H        0.926     0.087     1.904     2.158
    11   7 N        2.764     0.502    14.003     5.558
    12   1 H        0.926     0.068     2.109     2.271
    13   8 O        0.929    -0.493    23.601     6.515
    14   7 N        0.924    -0.428    31.051     8.051
    15   8 O        1.608    -0.669    26.912     7.001
    16   1 H        0.805     0.321     0.661     1.277
    17   1 H        0.803     0.318     0.670     1.286

Wiberg/Mayer (AO) data.
largest (>0.10) Wiberg bond orders for each atom

     #   Z sym  total        # sym  WBO       # sym  WBO       # sym  WBO
 ---------------------------------------------------------------------------
     1   6 C    3.805 --     8 O    1.647     2 C    1.145     6 C    0.914
     2   6 C    3.932 --     3 C    1.649     1 C    1.145     9 H    0.957
     3   6 C    3.939 --     2 C    1.649     4 C    1.187    10 H    0.958
     4   6 C    3.920 --     5 C    1.446     3 C    1.187    11 N    1.063
     5   6 C    3.688 --     4 C    1.446     6 C    1.146    12 H    0.960
     6   6 C    3.943 --    14 N    1.785     5 C    1.146     1 C    0.914
     7   8 O    1.742 --    11 N    1.342    13 O    0.265
     8   8 O    1.884 --     1 C    1.647
     9   1 H    0.986 --     2 C    0.957
    10   1 H    0.991 --     3 C    0.958
    11   7 N    3.807 --     7 O    1.342    13 O    1.340     4 C    1.063
    12   1 H    0.992 --     5 C    0.960
    13   8 O    1.736 --    11 N    1.340     7 O    0.265
    14   7 N    1.976 --     6 C    1.785
    15   8 O    1.759 --    16 H    0.882    17 H    0.854
    16   1 H    0.897 --    15 O    0.882
    17   1 H    0.898 --    15 O    0.854
 ---------------------------------------------------------------------------

molecular dipole:
                 x           y           z       tot (Debye)
 q only:        6.485       8.371      -2.965
   full:        6.051       8.657      -3.362      28.173

 projected vibrational frequencies (cm⁻¹)
eigval :       -0.00    -0.00    -0.00     0.00     0.00     0.00
eigval :       11.41    49.62    72.81    94.70   120.70   131.30
eigval :      203.40   234.03   258.79   329.70   339.98   369.72
eigval :      416.70   437.68   460.04   516.28   566.42   591.02
eigval :      603.01   634.74   692.99   729.68   745.40   762.70
eigval :      817.02   902.10   934.64  1093.90  1096.48  1135.78
eigval :     1175.59  1254.49  1263.77  1372.56  1473.37  1490.27
eigval :     1507.33  1550.98  1568.29  1599.88  3086.34  3101.25
eigval :     3102.69  3276.83  3525.88

   temp. (K)  partition function   enthalpy   heat capacity  entropy
                                   cal/mol     cal/K/mol   cal/K/mol   J/K/mol
 298.15  VIB  0.591E+05             6089.493     36.135     38.647
         ROT  0.130E+07              888.752      2.981     30.959
         INT  0.769E+11             6978.245     39.116     69.606
         TR   0.213E+28             1481.254      4.968     41.265
         TOT                        8459.4993    44.0837   110.8717   463.8874

       T/K    H(0)-H(T)+PV         H(T)/Eh          T*S/Eh         G(T)/Eh
   ------------------------------------------------------------------------
    298.15    0.134811E-01    0.117598E+00    0.526787E-01    0.649197E-01
   ------------------------------------------------------------------------

         :::::::::::::::::::::::::::::::::::::::::::::::::::::
         ::                  THERMODYNAMIC                  ::
         :::::::::::::::::::::::::::::::::::::::::::::::::::::
         :: total free energy         -37.568242484764 Eh   ::
         ::.................................................::
         :: total energy              -37.633162188341 Eh   ::
         :: zero point energy           0.104117378609 Eh   ::
         :: G(RRHO) w/o ZPVE           -0.039197675032 Eh   ::
         :: G(RRHO) contrib.            0.064919703577 Eh   ::
         :::::::::::::::::::::::::::::::::::::::::::::::::::::

           -------------------------------------------------
          | TOTAL ENERGY              -37.633162188341 Eh   |
          | TOTAL ENTHALPY            -37.515563739526 Eh   |
          | TOTAL FREE ENERGY         -37.568242484764 Eh   |
          | GRADIENT NORM               0.000374758806 Eh/α |
          | HOMO-LUMO GAP               0.025214390160 eV   |
           -------------------------------------------------

 * finished run on 2025/10/18 at 05:26:32.903
normal termination of xtb
