   * xtb version 6.7.1 (edcfbbe) compiled by 'albert@albert-system' on 2024-07-22

   ID    Z sym.   atoms
    1    6 C      1-6
    2    8 O      7, 8, 13, 15
    3    1 H      9, 10, 12, 16, 17
    4    7 N      11, 14

          program call               : xtb tb_lite_results_shiftn0p1_gp455_b0_rot270_complex.xyz --ohess --chrg -1 --alpb water
      * Solvation model:               ALPB
        Solvent                        water
        Solvent mass                       1.8000E+01 g/mol
          :  Hamiltonian                  GFN2-xTB          :
 * total energy  :   -37.5598989 Eh     change       -0.4893160E-08 Eh
 * total energy  :   -37.6282624 Eh     change       -0.6836352E-01 Eh
 * total energy  :   -37.6314683 Eh     change       -0.3205908E-02 Eh
 * total energy  :   -37.6323268 Eh     change       -0.8584194E-03 Eh
 * total energy  :   -37.6324648 Eh     change       -0.1380198E-03 Eh
 * total energy  :   -37.6325920 Eh     change       -0.1272129E-03 Eh
 * total energy  :   -37.6326686 Eh     change       -0.7659763E-04 Eh
 * total energy  :   -37.6327420 Eh     change       -0.7341400E-04 Eh
 * total energy  :   -37.6328312 Eh     change       -0.8917839E-04 Eh
 * total energy  :   -37.6329414 Eh     change       -0.1101931E-03 Eh
 * total energy  :   -37.6331161 Eh     change       -0.5770342E-04 Eh
 * total energy  :   -37.6331475 Eh     change       -0.3142172E-04 Eh
 * total energy  :   -37.6331767 Eh     change       -0.2916929E-04 Eh
 * total energy  :   -37.6331914 Eh     change       -0.1478600E-04 Eh
 * total energy  :   -37.6332050 Eh     change       -0.1358337E-04 Eh
 * total energy  :   -37.6332164 Eh     change       -0.1133419E-04 Eh
 * total energy  :   -37.6332125 Eh     change        0.3808871E-05 Eh
 * total energy  :   -37.6332264 Eh     change       -0.1383910E-04 Eh
 * total energy  :   -37.6332292 Eh     change       -0.2840695E-05 Eh
   *** GEOMETRY OPTIMIZATION CONVERGED AFTER 22 ITERATIONS ***

 final structure:
================
17
 xtb: 6.7.1 (edcfbbe)
C           -2.01427323021394       -2.82263283720904        1.55825102068976
C           -2.51707498268185       -2.22392189975020        0.35094923045269
C           -3.69221407074372       -2.57606359384433       -0.21714787251740
C           -4.49858762889208       -3.58454953596044        0.37873877084379
C           -4.10683408720715       -4.21579254718612        1.53512548437374
C           -2.87760532831714       -3.89894782038474        2.20464281340478
O           -6.41746388704308       -4.80606699619438        0.27903518868965
O           -0.93633493194226       -2.48786924384485        2.05547726389233
H           -1.88894642257163       -1.46191825753549       -0.08539537012453
H           -4.04960485500688       -2.11269677224140       -1.12386244901565
N           -5.70691092999343       -3.92866139912290       -0.23353037894694
H           -4.72980608600921       -4.97859312733771        1.97575477437035
O           -6.04383199647672       -3.34929508662160       -1.27698395391438
N           -2.50452957877486       -4.46114995580667        3.27077404479090
O           -0.08798399403274       -3.76308292684442        4.50705267765688
H            0.03788107807085       -3.13742517277205        3.78051798492263
H           -0.94384535447382       -4.18381504283778        4.29727379894635

          :  Hamiltonian                  GFN2-xTB          :
         :: gradient norm              0.000474593577 Eh/a0 ::
         :: HOMO-LUMO gap              0.025159402522 eV    ::
         :: SCC energy               -38.008884108004 Eh    ::
         :: -> dispersion             -0.015273809171 Eh    ::
         :: -> Gsolv                  -0.083462894914 Eh    ::
         :: repulsion energy           0.375654882294 Eh    ::

    * Orbital Energies and Occupations

         #    Occupation            Energy/Eh            Energy/eV
      -------------------------------------------------------------
         1        2.0000           -0.7561344             -20.5755
       ...           ...                  ...                  ...
        20        2.0000           -0.4889694             -13.3055
        21        2.0000           -0.4852802             -13.2051
        22        2.0000           -0.4808118             -13.0836
        23        2.0000           -0.4676447             -12.7253
        24        2.0000           -0.4642437             -12.6327
        25        2.0000           -0.4570487             -12.4369
        26        2.0000           -0.4435807             -12.0704
        27        2.0000           -0.4398052             -11.9677
        28        2.0000           -0.4237861             -11.5318
        29        2.0000           -0.4172975             -11.3552
        30        2.0000           -0.4098928             -11.1538
        31        2.0000           -0.3976502             -10.8206
        32        1.2386           -0.3399318              -9.2500 (HOMO)
        33        0.7614           -0.3390072              -9.2249 (LUMO)
        34                         -0.3105976              -8.4518
        35                         -0.2183902              -5.9427
        36                         -0.2041125              -5.5542
        37                         -0.1022224              -2.7816
        38                          0.0113582               0.3091
        39                          0.0810869               2.2065
        40                          0.1308695               3.5611
        41                          0.1379431               3.7536
        42                          0.1453849               3.9561
        43                          0.1703024               4.6342
       ...                                ...                  ...
        53                          0.7102464              19.3268
      -------------------------------------------------------------
                  HL-Gap            0.0009246 Eh            0.0252 eV

     #   Z          covCN         q      C6AA      α(0)
     1   6 C        2.825     0.216    23.449     7.935
     2   6 C        2.906    -0.070    29.746     8.943
     3   6 C        2.908    -0.021    28.530     8.758
     4   6 C        2.902     0.005    27.921     8.664
     5   6 C        2.914    -0.044    29.101     8.846
     6   6 C        2.875     0.093    25.927     8.347
     7   8 O        0.929    -0.502    23.781     6.540
     8   8 O        0.858    -0.460    22.920     6.419
     9   1 H        0.926     0.078     1.999     2.211
    10   1 H        0.926     0.087     1.904     2.158
    11   7 N        2.764     0.502    14.004     5.558
    12   1 H        0.926     0.068     2.109     2.271
    13   8 O        0.929    -0.494    23.603     6.516
    14   7 N        0.924    -0.427    31.041     8.050
    15   8 O        1.608    -0.670    26.927     7.004
    16   1 H        0.805     0.321     0.662     1.278
    17   1 H        0.803     0.318     0.669     1.285

Wiberg/Mayer (AO) data.
largest (>0.10) Wiberg bond orders for each atom

     #   Z sym  total        # sym  WBO       # sym  WBO       # sym  WBO
 ---------------------------------------------------------------------------
     1   6 C    3.805 --     8 O    1.647     2 C    1.145     6 C    0.914
     2   6 C    3.932 --     3 C    1.649     1 C    1.145     9 H    0.957
     3   6 C    3.938 --     2 C    1.649     4 C    1.187    10 H    0.958
     4   6 C    3.920 --     5 C    1.446     3 C    1.187    11 N    1.063
     5   6 C    3.688 --     4 C    1.446     6 C    1.146    12 H    0.960
     6   6 C    3.943 --    14 N    1.786     5 C    1.146     1 C    0.914
     7   8 O    1.742 --    11 N    1.342    13 O    0.265
     8   8 O    1.885 --     1 C    1.647
     9   1 H    0.986 --     2 C    0.957
    10   1 H    0.991 --     3 C    0.958
    11   7 N    3.807 --     7 O    1.342    13 O    1.340     4 C    1.063
    12   1 H    0.992 --     5 C    0.960
    13   8 O    1.736 --    11 N    1.340     7 O    0.265
    14   7 N    1.976 --     6 C    1.786
    15   8 O    1.759 --    16 H    0.881    17 H    0.855
    16   1 H    0.897 --    15 O    0.881
    17   1 H    0.898 --    15 O    0.855
 ---------------------------------------------------------------------------

molecular dipole:
                 x           y           z       tot (Debye)
 q only:        6.609       7.742      -3.640
   full:        6.232       7.884      -4.162      27.648

 projected vibrational frequencies (cm⁻¹)
eigval :       -0.00    -0.00    -0.00    -0.00     0.00     0.00
eigval :        7.65    46.48    71.06    87.27   120.77   122.13
eigval :      183.89   221.57   258.75   325.23   340.06   370.52
eigval :      416.39   438.04   459.75   516.19   565.03   591.29
eigval :      603.12   635.33   693.39   729.79   745.76   762.89
eigval :      816.92   902.81   934.84  1094.43  1096.74  1136.36
eigval :     1176.50  1254.65  1264.02  1372.79  1473.47  1489.98
eigval :     1503.78  1551.70  1568.28  1600.01  3087.32  3101.11
eigval :     3103.27  3286.11  3522.42

   temp. (K)  partition function   enthalpy   heat capacity  entropy
                                   cal/mol     cal/K/mol   cal/K/mol   J/K/mol
 298.15  VIB  0.117E+06             6154.267     36.087     39.650
         ROT  0.130E+07              888.752      2.981     30.959
         INT  0.152E+12             7043.019     39.068     70.609
         TR   0.213E+28             1481.254      4.968     41.265
         TOT                        8524.2732    44.0357   111.8743   468.0822

       T/K    H(0)-H(T)+PV         H(T)/Eh          T*S/Eh         G(T)/Eh
   ------------------------------------------------------------------------
    298.15    0.135843E-01    0.117582E+00    0.531551E-01    0.644272E-01
   ------------------------------------------------------------------------

         :::::::::::::::::::::::::::::::::::::::::::::::::::::
         ::                  THERMODYNAMIC                  ::
         :::::::::::::::::::::::::::::::::::::::::::::::::::::
         :: total free energy         -37.568801985037 Eh   ::
         ::.................................................::
         :: total energy              -37.633229225364 Eh   ::
         :: zero point energy           0.103998047987 Eh   ::
         :: G(RRHO) w/o ZPVE           -0.039570807660 Eh   ::
         :: G(RRHO) contrib.            0.064427240327 Eh   ::
         :::::::::::::::::::::::::::::::::::::::::::::::::::::

           -------------------------------------------------
          | TOTAL ENERGY              -37.633229225364 Eh   |
          | TOTAL ENTHALPY            -37.515646883304 Eh   |
          | TOTAL FREE ENERGY         -37.568801985037 Eh   |
          | GRADIENT NORM               0.000474626583 Eh/α |
          | HOMO-LUMO GAP               0.025159758343 eV   |
           -------------------------------------------------

 * finished run on 2025/10/18 at 05:26:29.368
normal termination of xtb
