   * xtb version 6.7.1 (edcfbbe) compiled by 'albert@albert-system' on 2024-07-22

   ID    Z sym.   atoms
    1    6 C      1-6
    2    8 O      7, 8, 13, 15
    3    1 H      9, 10, 12, 16, 17
    4    7 N      11, 14

          program call               : xtb tb_lite_results_shiftn0p15_gp455_b0_rot270_complex.xyz --ohess --chrg -1 --alpb water
      * Solvation model:               ALPB
        Solvent                        water
        Solvent mass                       1.8000E+01 g/mol
          :  Hamiltonian                  GFN2-xTB          :
 * total energy  :   -37.5592142 Eh     change       -0.4021508E-08 Eh
 * total energy  :   -37.6279169 Eh     change       -0.6870276E-01 Eh
 * total energy  :   -37.6313130 Eh     change       -0.3396086E-02 Eh
 * total energy  :   -37.6322664 Eh     change       -0.9534196E-03 Eh
 * total energy  :   -37.6324356 Eh     change       -0.1691633E-03 Eh
 * total energy  :   -37.6325873 Eh     change       -0.1516958E-03 Eh
 * total energy  :   -37.6326761 Eh     change       -0.8880065E-04 Eh
 * total energy  :   -37.6327441 Eh     change       -0.6804395E-04 Eh
 * total energy  :   -37.6328159 Eh     change       -0.7180270E-04 Eh
 * total energy  :   -37.6328982 Eh     change       -0.8232507E-04 Eh
 * total energy  :   -37.6331109 Eh     change       -0.1210293E-03 Eh
 * total energy  :   -37.6331367 Eh     change       -0.2579866E-04 Eh
 * total energy  :   -37.6331653 Eh     change       -0.2864246E-04 Eh
 * total energy  :   -37.6331789 Eh     change       -0.1352223E-04 Eh
 * total energy  :   -37.6331932 Eh     change       -0.1434107E-04 Eh
 * total energy  :   -37.6332143 Eh     change       -0.2108936E-04 Eh
 * total energy  :   -37.6332232 Eh     change       -0.8963479E-05 Eh
 * total energy  :   -37.6332286 Eh     change       -0.5368216E-05 Eh
 * total energy  :   -37.6332307 Eh     change       -0.2084765E-05 Eh
   *** GEOMETRY OPTIMIZATION CONVERGED AFTER 23 ITERATIONS ***

 final structure:
================
17
 xtb: 6.7.1 (edcfbbe)
C           -2.05408517838299       -2.76971941540082        1.58954600270732
C           -2.56624226847867       -2.15914160998893        0.39190551865409
C           -3.71922338669855       -2.54250717369658       -0.20071941161668
C           -4.49109226126932       -3.59805602587430        0.35854244099511
C           -4.08809297114249       -4.24307532244165        1.50336127332945
C           -2.88072557062678       -3.89637132712193        2.19603377508711
O           -6.35566009349230       -4.89519803078866        0.20059898742899
O           -0.99609943140687       -2.40471162458498        2.10817278611595
H           -1.96345247127834       -1.36151544502593       -0.01560811250674
H           -4.08492402536284       -2.07039626906743       -1.09948210892411
N           -5.67697041192459       -3.97458749854286       -0.27834985944962
H           -4.68537131512436       -5.04179513823228        1.91532601926223
O           -6.02504419970011       -3.38129322503415       -1.31025692405525
N           -2.49510969103620       -4.47069161263587        3.25133205799056
O           -0.06137105006386       -3.78428071894795        4.47311548591112
H            0.01710364836746       -3.11939676049755        3.77513963770332
H           -0.91095902967533       -4.22039159662619        4.27369996272042

          :  Hamiltonian                  GFN2-xTB          :
         :: gradient norm              0.000775175639 Eh/a0 ::
         :: HOMO-LUMO gap              0.024965830965 eV    ::
         :: SCC energy               -38.009003487477 Eh    ::
         :: -> dispersion             -0.015271573853 Eh    ::
         :: -> Gsolv                  -0.083443352367 Eh    ::
         :: repulsion energy           0.375772789643 Eh    ::

    * Orbital Energies and Occupations

         #    Occupation            Energy/Eh            Energy/eV
      -------------------------------------------------------------
         1        2.0000           -0.7560870             -20.5742
       ...           ...                  ...                  ...
        20        2.0000           -0.4890413             -13.3075
        21        2.0000           -0.4852407             -13.2041
        22        2.0000           -0.4809296             -13.0868
        23        2.0000           -0.4675965             -12.7239
        24        2.0000           -0.4642212             -12.6321
        25        2.0000           -0.4569911             -12.4354
        26        2.0000           -0.4435754             -12.0703
        27        2.0000           -0.4397624             -11.9665
        28        2.0000           -0.4237829             -11.5317
        29        2.0000           -0.4174779             -11.3602
        30        2.0000           -0.4098433             -11.1524
        31        2.0000           -0.3976814             -10.8215
        32        1.2368           -0.3399029              -9.2492 (HOMO)
        33        0.7632           -0.3389855              -9.2243 (LUMO)
        34                         -0.3105713              -8.4511
        35                         -0.2183613              -5.9419
        36                         -0.2041031              -5.5539
        37                         -0.1021276              -2.7790
        38                          0.0113176               0.3080
        39                          0.0813623               2.2140
        40                          0.1310301               3.5655
        41                          0.1381201               3.7584
        42                          0.1453307               3.9546
        43                          0.1702826               4.6336
       ...                                ...                  ...
        53                          0.7102689              19.3274
      -------------------------------------------------------------
                  HL-Gap            0.0009174 Eh            0.0250 eV

     #   Z          covCN         q      C6AA      α(0)
     1   6 C        2.826     0.216    23.448     7.935
     2   6 C        2.906    -0.070    29.745     8.943
     3   6 C        2.908    -0.021    28.531     8.759
     4   6 C        2.902     0.005    27.922     8.664
     5   6 C        2.914    -0.044    29.103     8.846
     6   6 C        2.875     0.093    25.927     8.347
     7   8 O        0.929    -0.502    23.784     6.540
     8   8 O        0.858    -0.460    22.928     6.420
     9   1 H        0.926     0.078     2.000     2.211
    10   1 H        0.926     0.087     1.904     2.158
    11   7 N        2.764     0.502    14.005     5.558
    12   1 H        0.926     0.068     2.110     2.272
    13   8 O        0.929    -0.494    23.605     6.516
    14   7 N        0.924    -0.427    31.035     8.049
    15   8 O        1.608    -0.670    26.921     7.003
    16   1 H        0.805     0.321     0.662     1.278
    17   1 H        0.804     0.319     0.667     1.283

Wiberg/Mayer (AO) data.
largest (>0.10) Wiberg bond orders for each atom

     #   Z sym  total        # sym  WBO       # sym  WBO       # sym  WBO
 ---------------------------------------------------------------------------
     1   6 C    3.805 --     8 O    1.647     2 C    1.145     6 C    0.914
     2   6 C    3.932 --     3 C    1.649     1 C    1.145     9 H    0.957
     3   6 C    3.938 --     2 C    1.649     4 C    1.187    10 H    0.958
     4   6 C    3.920 --     5 C    1.446     3 C    1.187    11 N    1.063
     5   6 C    3.688 --     4 C    1.446     6 C    1.147    12 H    0.960
     6   6 C    3.943 --    14 N    1.785     5 C    1.147     1 C    0.914
     7   8 O    1.742 --    11 N    1.342    13 O    0.265
     8   8 O    1.885 --     1 C    1.647
     9   1 H    0.986 --     2 C    0.957
    10   1 H    0.991 --     3 C    0.958
    11   7 N    3.807 --     7 O    1.342    13 O    1.340     4 C    1.063
    12   1 H    0.992 --     5 C    0.960
    13   8 O    1.736 --    11 N    1.340     7 O    0.265
    14   7 N    1.973 --     6 C    1.785
    15   8 O    1.759 --    16 H    0.881    17 H    0.857
    16   1 H    0.897 --    15 O    0.881
    17   1 H    0.898 --    15 O    0.857
 ---------------------------------------------------------------------------

molecular dipole:
                 x           y           z       tot (Debye)
 q only:        6.562       7.790      -3.561
   full:        6.175       7.936      -4.076      27.579

 projected vibrational frequencies (cm⁻¹)
eigval :       -0.00     0.00     0.00     0.00     0.00     0.00
eigval :      -25.97    48.28    64.38    76.17   111.42   120.34
eigval :      164.62   217.39   259.39   339.60   340.99   369.83
eigval :      416.41   437.30   460.24   515.99   557.41   590.99
eigval :      603.09   636.07   693.21   729.97   746.70   762.82
eigval :      818.14   903.16   934.59  1093.53  1096.64  1136.08
eigval :     1176.05  1254.57  1263.85  1372.52  1473.66  1490.05
eigval :     1501.58  1551.45  1568.03  1599.63  3086.91  3101.07
eigval :     3102.41  3305.95  3520.45

   temp. (K)  partition function   enthalpy   heat capacity  entropy
                                   cal/mol     cal/K/mol   cal/K/mol   J/K/mol
 298.15  VIB  0.570E+04             5621.146     35.023     34.901
         ROT  0.130E+07              888.752      2.981     30.960
         INT  0.742E+10             6509.898     38.004     65.860
         TR   0.213E+28             1481.254      4.968     41.265
         TOT                        7991.1519    42.9718   107.1257   448.2138

       T/K    H(0)-H(T)+PV         H(T)/Eh          T*S/Eh         G(T)/Eh
   ------------------------------------------------------------------------
    298.15    0.127347E-01    0.116649E+00    0.508989E-01    0.657496E-01
   ------------------------------------------------------------------------

         :::::::::::::::::::::::::::::::::::::::::::::::::::::
         ::                  THERMODYNAMIC                  ::
         :::::::::::::::::::::::::::::::::::::::::::::::::::::
         :: total free energy         -37.567481055316 Eh   ::
         ::.................................................::
         :: total energy              -37.633230698225 Eh   ::
         :: zero point energy           0.103913793542 Eh   ::
         :: G(RRHO) w/o ZPVE           -0.038164150633 Eh   ::
         :: G(RRHO) contrib.            0.065749642909 Eh   ::
         :::::::::::::::::::::::::::::::::::::::::::::::::::::

           -------------------------------------------------
          | TOTAL ENERGY              -37.633230698225 Eh   |
          | TOTAL ENTHALPY            -37.516582193506 Eh   |
          | TOTAL FREE ENERGY         -37.567481055316 Eh   |
          | GRADIENT NORM               0.000775572226 Eh/α |
          | HOMO-LUMO GAP               0.024963142623 eV   |
           -------------------------------------------------

 * finished run on 2025/10/18 at 05:26:35.857
normal termination of xtb
