   * xtb version 6.7.1 (edcfbbe) compiled by 'albert@albert-system' on 2024-07-22

   ID    Z sym.   atoms
    1    6 C      1-6
    2    8 O      7, 8, 13
    3    1 H      9, 10, 12
    4    7 N      11, 14

          program call               : xtb tb_lite_results_shiftn0p1_gp455_b0_rot270_solute.xyz --ohess --chrg -1
          :  Hamiltonian                  GFN2-xTB          :
 * total energy  :   -32.3917409 Eh     change        0.1586642E-10 Eh
 * total energy  :   -32.4590564 Eh     change       -0.6731549E-01 Eh
 * total energy  :   -32.4620724 Eh     change       -0.3016050E-02 Eh
 * total energy  :   -32.4626926 Eh     change       -0.6201423E-03 Eh
 * total energy  :   -32.4627420 Eh     change       -0.4943195E-04 Eh
 * total energy  :   -32.4627606 Eh     change       -0.1860820E-04 Eh
 * total energy  :   -32.4627621 Eh     change       -0.1481783E-05 Eh
 * total energy  :   -32.4627658 Eh     change       -0.3665702E-05 Eh
   *** GEOMETRY OPTIMIZATION CONVERGED AFTER 8 ITERATIONS ***

 final structure:
================
14
 xtb: 6.7.1 (edcfbbe)
C           -2.03760588942810       -2.83739501960618        1.59098906854538
C           -2.55068531316432       -2.19876297014936        0.40485501588581
C           -3.71789415738821       -2.53932149180614       -0.19131549103641
C           -4.51613153586140       -3.57992635215295        0.34816961455688
C           -4.11432676224024       -4.25453036924505        1.48040247953770
C           -2.89320423959677       -3.95905510321049        2.17375913042440
O           -6.41776750009249       -4.81453664511508        0.17582237115305
O           -0.97505516441988       -2.49962684116447        2.10301576265437
H           -1.93384299910715       -1.40588928712272        0.00206718910661
H           -4.07054396235156       -2.03695815232538       -1.08058601782817
N           -5.71940985267100       -3.90853982211121       -0.29106665560744
H           -4.73050470606344       -5.04510414777171        1.88111067739633
O           -6.04603940150519       -3.28258030546833       -1.30874442027850
N           -2.52112877464795       -4.57351172487922        3.20769032674083

          :  Hamiltonian                  GFN2-xTB          :
         :: gradient norm              0.000887619397 Eh/a0 ::
         :: HOMO-LUMO gap              0.014845946256 eV    ::
         :: SCC energy               -32.808403932636 Eh    ::
         :: -> dispersion             -0.013600201290 Eh    ::
         :: repulsion energy           0.345638149780 Eh    ::

    * Orbital Energies and Occupations

         #    Occupation            Energy/Eh            Energy/eV
      -------------------------------------------------------------
         1        2.0000           -0.6116895             -16.6449
       ...           ...                  ...                  ...
        16        2.0000           -0.3940167             -10.7217
        17        2.0000           -0.3692461             -10.0477
        18        2.0000           -0.3470280              -9.4431
        19        2.0000           -0.3445513              -9.3757
        20        2.0000           -0.3320267              -9.0349
        21        2.0000           -0.3182580              -8.6602
        22        2.0000           -0.3155318              -8.5861
        23        2.0000           -0.2979312              -8.1071
        24        2.0000           -0.2944120              -8.0114
        25        2.0000           -0.2786093              -7.5813
        26        2.0000           -0.2688170              -7.3149
        27        2.0000           -0.2509914              -6.8298
        28        1.1427           -0.1955671              -5.3217 (HOMO)
        29        0.8573           -0.1950213              -5.3068 (LUMO)
        30                         -0.1667078              -4.5364
        31                         -0.0783287              -2.1314
        32                         -0.0625300              -1.7015
        33                          0.0382285               1.0403
        34                          0.1517486               4.1293
        35                          0.2177864               5.9263
        36                          0.2594722               7.0606
        37                          0.2815763               7.6621
        38                          0.3016629               8.2087
        39                          0.3594026               9.7798
       ...                                ...                  ...
        47                          0.8522291              23.1903
      -------------------------------------------------------------
                  HL-Gap            0.0005459 Eh            0.0149 eV

     #   Z          covCN         q      C6AA      α(0)
     1   6 C        2.824     0.210    23.555     7.952
     2   6 C        2.906    -0.077    29.928     8.970
     3   6 C        2.908    -0.032    28.797     8.799
     4   6 C        2.902    -0.013    28.336     8.728
     5   6 C        2.914    -0.055    29.370     8.887
     6   6 C        2.874     0.087    26.069     8.370
     7   8 O        0.929    -0.467    23.019     6.434
     8   8 O        0.858    -0.418    22.045     6.295
     9   1 H        0.925     0.027     2.628     2.535
    10   1 H        0.926     0.045     2.382     2.413
    11   7 N        2.763     0.486    14.192     5.595
    12   1 H        0.926     0.052     2.299     2.371
    13   8 O        0.929    -0.475    23.195     6.459
    14   7 N        0.924    -0.370    29.442     7.840

Wiberg/Mayer (AO) data.
largest (>0.10) Wiberg bond orders for each atom

     #   Z sym  total        # sym  WBO       # sym  WBO       # sym  WBO
 ---------------------------------------------------------------------------
     1   6 C    3.813 --     8 O    1.679     2 C    1.138     6 C    0.904
     2   6 C    3.918 --     3 C    1.629     1 C    1.138     9 H    0.964
     3   6 C    3.936 --     2 C    1.629     4 C    1.205    10 H    0.963
     4   6 C    3.920 --     5 C    1.427     3 C    1.205    11 N    1.057
     5   6 C    3.667 --     4 C    1.427     6 C    1.149    12 H    0.963
     6   6 C    3.947 --    14 N    1.795     5 C    1.149     1 C    0.904
     7   8 O    1.769 --    11 N    1.354    13 O    0.277
     8   8 O    1.902 --     1 C    1.679
     9   1 H    0.992 --     2 C    0.964
    10   1 H    0.997 --     3 C    0.963
    11   7 N    3.817 --     7 O    1.354    13 O    1.343     4 C    1.057
    12   1 H    0.994 --     5 C    0.963
    13   8 O    1.752 --    11 N    1.343     7 O    0.277
    14   7 N    1.932 --     6 C    1.795
 ---------------------------------------------------------------------------

molecular dipole:
                 x           y           z       tot (Debye)
 q only:        7.311       7.264      -2.281
   full:        7.097       7.474      -2.707      27.084

 projected vibrational frequencies (cm⁻¹)
eigval :       -0.00    -0.00    -0.00     0.00     0.00     0.00
eigval :       42.56    70.82   121.35   199.41   263.93   334.19
eigval :      351.65   420.81   427.61   462.84   514.42   586.04
eigval :      605.55   638.81   688.60   725.29   733.12   763.94
eigval :      801.78   896.04   933.26  1081.82  1103.76  1136.52
eigval :     1183.90  1270.66  1312.11  1390.57  1477.43  1545.82
eigval :     1549.42  1580.28  1634.56  3050.85  3080.35  3095.26

   temp. (K)  partition function   enthalpy   heat capacity  entropy
                                   cal/mol     cal/K/mol   cal/K/mol   J/K/mol
 298.15  VIB   332.                 3978.876     26.670     23.746
         ROT  0.788E+06              888.752      2.981     29.963
         INT  0.262E+09             4867.628     29.651     53.709
         TR   0.180E+28             1481.254      4.968     40.930
         TOT                        6348.8821    34.6195    94.6390   395.9696

       T/K    H(0)-H(T)+PV         H(T)/Eh          T*S/Eh         G(T)/Eh
   ------------------------------------------------------------------------
    298.15    0.101176E-01    0.923032E-01    0.449660E-01    0.473372E-01
   ------------------------------------------------------------------------

         :::::::::::::::::::::::::::::::::::::::::::::::::::::
         ::                  THERMODYNAMIC                  ::
         :::::::::::::::::::::::::::::::::::::::::::::::::::::
         :: total free energy         -32.415428609795 Eh   ::
         ::.................................................::
         :: total energy              -32.462765782974 Eh   ::
         :: zero point energy           0.082185625936 Eh   ::
         :: G(RRHO) w/o ZPVE           -0.034848452756 Eh   ::
         :: G(RRHO) contrib.            0.047337173180 Eh   ::
         :::::::::::::::::::::::::::::::::::::::::::::::::::::

           -------------------------------------------------
          | TOTAL ENERGY              -32.462765782974 Eh   |
          | TOTAL ENTHALPY            -32.370462569473 Eh   |
          | TOTAL FREE ENERGY         -32.415428609795 Eh   |
          | GRADIENT NORM               0.000884723569 Eh/α |
          | HOMO-LUMO GAP               0.014853528621 eV   |
           -------------------------------------------------

 * finished run on 2025/10/18 at 05:26:30.234
normal termination of xtb
