   * xtb version 6.7.1 (edcfbbe) compiled by 'albert@albert-system' on 2024-07-22

   ID    Z sym.   atoms
    1    6 C      1, 2, 9
    2    1 H      3-5, 7, 8, 10, 11
    3   16 S      6

          program call               : xtb xyz.xyz --alpb water --charge -1 --ohess
      * Solvation model:               ALPB
        Solvent                        water
        Solvent mass                       1.8000E+01 g/mol
          :  Hamiltonian                  GFN2-xTB          :
 * total energy  :   -13.4743538 Eh     change       -0.1794653E-10 Eh
 * total energy  :   -13.4746124 Eh     change       -0.2585527E-03 Eh
 * total energy  :   -13.4747336 Eh     change       -0.1212241E-03 Eh
 * total energy  :   -13.4747732 Eh     change       -0.3961336E-04 Eh
 * total energy  :   -13.4748225 Eh     change       -0.4930906E-04 Eh
 * total energy  :   -13.4748552 Eh     change       -0.3270408E-04 Eh
 * total energy  :   -13.4748763 Eh     change       -0.2105312E-04 Eh
 * total energy  :   -13.4748977 Eh     change       -0.2137769E-04 Eh
 * total energy  :   -13.4749037 Eh     change       -0.6005916E-05 Eh
 * total energy  :   -13.4749074 Eh     change       -0.3719033E-05 Eh
   *** GEOMETRY OPTIMIZATION CONVERGED AFTER 10 ITERATIONS ***

 final structure:
================
11
 xtb: 6.7.1 (edcfbbe)
C           -3.75218359399064        2.01282842919559        0.47232081789116
C           -0.14290636255030        1.21199380208900       -0.44851255277752
H           -1.13840630758296        0.76391274787203       -0.48677735939353
H           -3.40110917811583        2.22479944896482        1.46875675658501
H           -3.83005304271895        2.86660694580042       -0.18043176559372
S           -0.27234822034203        2.91167153766222        0.15276866553066
H            0.49212503363657        0.63286890446852        0.22587750114137
H            0.29677292954781        1.21004766753610       -1.44877895438565
C           -4.01068226281870        0.78833333641161        0.06242026697319
H           -3.90245502050612       -0.06406430512370        0.71322970338793
H           -4.33222297455891        0.58185248512296       -0.94536707935909

          :  Hamiltonian                  GFN2-xTB          :
         :: gradient norm              0.000469796338 Eh/a0 ::
         :: HOMO-LUMO gap              2.299270214919 eV    ::
         :: SCC energy               -13.659899193697 Eh    ::
         :: -> dispersion             -0.005581794332 Eh    ::
         :: -> Gsolv                  -0.099812550498 Eh    ::
         :: repulsion energy           0.184991804263 Eh    ::

    * Orbital Energies and Occupations

         #    Occupation            Energy/Eh            Energy/eV
      -------------------------------------------------------------
         1        2.0000           -0.6302027             -17.1487
         2        2.0000           -0.6050833             -16.4652
         3        2.0000           -0.5759898             -15.6735
         4        2.0000           -0.5452894             -14.8381
         5        2.0000           -0.5021621             -13.6645
         6        2.0000           -0.4761426             -12.9565
         7        2.0000           -0.4757656             -12.9462
         8        2.0000           -0.4665461             -12.6954
         9        2.0000           -0.4272276             -11.6255
        10        2.0000           -0.4152178             -11.2987
        11        2.0000           -0.4082522             -11.1091
        12        2.0000           -0.2854538              -7.7676
        13        2.0000           -0.2853509              -7.7648 (HOMO)
        14                         -0.2008541              -5.4655 (LUMO)
        15                         -0.1234397              -3.3590
        16                          0.0454141               1.2358
        17                          0.0457286               1.2443
        18                          0.0631628               1.7187
        19                          0.0637415               1.7345
        20                          0.1452939               3.9536
        21                          0.1523680               4.1461
        22                          0.1620411               4.4094
        23                          0.2088657               5.6835
        24                          0.2339001               6.3647
       ...                                ...                  ...
        28                          0.6102053              16.6045
      -------------------------------------------------------------
                  HL-Gap            0.0844968 Eh            2.2993 eV

     #   Z          covCN         q      C6AA      α(0)
     1   6 C        2.832    -0.063    29.546     8.907
     2   6 C        3.743     0.043    19.924     6.368
     3   1 H        0.924    -0.020     3.431     2.896
     4   1 H        0.926     0.033     2.539     2.492
     5   1 H        0.926     0.035     2.521     2.483
     6  16 S        0.970    -0.972   186.735    23.113
     7   1 H        0.924    -0.024     3.520     2.934
     8   1 H        0.924    -0.025     3.525     2.936
     9   6 C        2.832    -0.086    30.133     8.995
    10   1 H        0.926     0.038     2.472     2.459
    11   1 H        0.926     0.040     2.444     2.445

Wiberg/Mayer (AO) data.
largest (>0.10) Wiberg bond orders for each atom

     #   Z sym  total        # sym  WBO       # sym  WBO       # sym  WBO
 ---------------------------------------------------------------------------
     1   6 C    3.991 --     9 C    2.031     4 H    0.977     5 H    0.977
     2   6 C    3.994 --     6 S    1.027     7 H    0.989     8 H    0.989
                             3 H    0.987
     3   1 H    1.000 --     2 C    0.987
     4   1 H    0.999 --     1 C    0.977
     5   1 H    0.999 --     1 C    0.977
     6  16 S    1.065 --     2 C    1.027
     7   1 H    0.999 --     2 C    0.989
     8   1 H    0.999 --     2 C    0.989
     9   6 C    3.992 --     1 C    2.031    10 H    0.977    11 H    0.977
    10   1 H    0.999 --     9 C    0.977
    11   1 H    0.998 --     9 C    0.977
 ---------------------------------------------------------------------------

molecular dipole:
                 x           y           z       tot (Debye)
 q only:        0.509      -5.363      -0.247
   full:        0.604      -5.887      -0.443      15.084

 projected vibrational frequencies (cm⁻¹)
eigval :       -0.00    -0.00    -0.00    -0.00     0.00     0.00
eigval :      -36.81   -18.62    28.72    41.45    66.45    73.39
eigval :      726.95   838.43   862.08   941.03   943.98  1013.44
eigval :     1029.94  1177.84  1316.55  1392.40  1413.72  1486.50
eigval :     1487.11  1700.50  2907.72  2917.59  2940.95  3089.50
eigval :     3099.39  3101.91  3119.88

   temp. (K)  partition function   enthalpy   heat capacity  entropy
                                   cal/mol     cal/K/mol   cal/K/mol   J/K/mol
 298.15  VIB  0.676E+04             2931.516     11.225     22.106
         ROT  0.159E+06              888.752      2.981     26.785
         INT  0.108E+10             3820.268     14.205     48.891
         TR   0.630E+27             1481.254      4.968     38.849
         TOT                        5301.5218    19.1736    87.7404   367.1057

       T/K    H(0)-H(T)+PV         H(T)/Eh          T*S/Eh         G(T)/Eh
   ------------------------------------------------------------------------
    298.15    0.844851E-02    0.944175E-01    0.416883E-01    0.527293E-01
   ------------------------------------------------------------------------

         :::::::::::::::::::::::::::::::::::::::::::::::::::::
         ::                  THERMODYNAMIC                  ::
         :::::::::::::::::::::::::::::::::::::::::::::::::::::
         :: total free energy         -13.422178130406 Eh   ::
         ::.................................................::
         :: total energy              -13.474907389462 Eh   ::
         :: zero point energy           0.085969021330 Eh   ::
         :: G(RRHO) w/o ZPVE           -0.033239762274 Eh   ::
         :: G(RRHO) contrib.            0.052729259056 Eh   ::
         :::::::::::::::::::::::::::::::::::::::::::::::::::::

           -------------------------------------------------
          | TOTAL ENERGY              -13.474907389462 Eh   |
          | TOTAL ENTHALPY            -13.380489855331 Eh   |
          | TOTAL FREE ENERGY         -13.422178130406 Eh   |
          | GRADIENT NORM               0.000469764607 Eh/α |
          | HOMO-LUMO GAP               2.299274229304 eV   |
           -------------------------------------------------

 * finished run on 2025/10/18 at 18:38:04.505
