                         Program Version 5.0.4 -  RELEASE  -
|  1> !OPT PBE D3BJ def2-TZVP CPCM(water)
|  2>
|  3> * xyz -1 1
|  4> C     -3.038570    1.741585   -0.000011
|  5> C     -3.034831    0.338745    0.000001
|  6> H      0.272941    2.311907   -0.000038
|  7> O     -1.878865    3.792059   -0.000036
|  8> C     -1.830447   -0.351899   -0.000001
|  9> H     -3.978064   -0.195427    0.000011
| 10> C     -0.642529    0.366696   -0.000015
| 11> H     -1.817791   -1.435171    0.000007
| 12> C     -0.671568    1.769240   -0.000027
| 13> H      0.312927   -0.145292   -0.000016
| 14> C     -1.863969    2.517112   -0.000025
| 15> H     -3.995501    2.262035   -0.000008
| 16> *
| 17>
| 18>                          ****END OF INPUT****
 Total Charge           Charge          ....   -1
 Multiplicity           Mult            ....    1
 Number of Electrons    NEL             ....   50
Dispersion correction           -0.011526956
FINAL SINGLE POINT ENERGY      -306.745109020575
Dispersion correction            ... done
Dispersion correction           -0.011469383
FINAL SINGLE POINT ENERGY      -306.747669115756
Dispersion correction            ... done
Dispersion correction           -0.011456077
FINAL SINGLE POINT ENERGY      -306.747933722473
Dispersion correction            ... done
Dispersion correction           -0.011455505
FINAL SINGLE POINT ENERGY      -306.747971659991
Dispersion correction            ... done
Dispersion correction           -0.011457087
FINAL SINGLE POINT ENERGY      -306.747981521817
Dispersion correction            ... done
                    ***********************HURRAY********************

CARTESIAN COORDINATES (ANGSTROEM)
---------------------------------
  C     -3.066702    1.736946   -0.000011
  C     -3.042007    0.343465    0.000001
  H      0.301275    2.318918   -0.000037
  O     -1.879430    3.821414   -0.000036
  C     -1.830294   -0.365637   -0.000001
  H     -3.988686   -0.206371    0.000012
  C     -0.635400    0.371537   -0.000015
  H     -1.817637   -1.456780    0.000007
  C     -0.643228    1.765249   -0.000027
  H      0.323833   -0.156078   -0.000017
  C     -1.864091    2.530579   -0.000026
  H     -4.023899    2.268349   -0.000008

 Multiplicity           Mult            ....    1
 Number of Electrons    NEL             ....   50
 Basis Dimension        Dim             ....  247

ORBITAL ENERGIES
----------------

  NO   OCC          E(Eh)            E(eV)
   0   2.0000     -18.658817      -507.7322
   1   2.0000      -9.900224      -269.3988
   2   2.0000      -9.864513      -268.4270
   3   2.0000      -9.864496      -268.4266
   4   2.0000      -9.852179      -268.0914
   5   2.0000      -9.848459      -267.9902
   6   2.0000      -9.848432      -267.9895
   7   2.0000      -0.856986       -23.3198
   8   2.0000      -0.733831       -19.9686
   9   2.0000      -0.644956       -17.5501
  10   2.0000      -0.616744       -16.7825
  11   2.0000      -0.514007       -13.9868
  12   2.0000      -0.494668       -13.4606
  13   2.0000      -0.427011       -11.6196
  14   2.0000      -0.377544       -10.2735
  15   2.0000      -0.373556       -10.1650
  16   2.0000      -0.342635        -9.3236
  17   2.0000      -0.328473        -8.9382
  18   2.0000      -0.320131        -8.7112
  19   2.0000      -0.286075        -7.7845
  20   2.0000      -0.275561        -7.4984
  21   2.0000      -0.256345        -6.9755
  22   2.0000      -0.207465        -5.6454
  23   2.0000      -0.160233        -4.3602
  24   2.0000      -0.143533        -3.9057
  25   0.0000      -0.018903        -0.5144
  26   0.0000       0.007755         0.2110
  27   0.0000       0.047323         1.2877
  28   0.0000       0.074268         2.0209
  29   0.0000       0.083583         2.2744

MULLIKEN ATOMIC CHARGES
-----------------------
   0 C :   -0.274526
   1 C :   -0.158904
   2 H :    0.073218
   3 O :   -0.617693
   4 C :   -0.216377
   5 H :    0.112400
   6 C :   -0.158756
   7 H :    0.114114
   8 C :   -0.274711
   9 H :    0.112386
  10 C :    0.215568
  11 H :    0.073281
Sum of atomic charges:   -1.0000000

LOEWDIN ATOMIC CHARGES
----------------------
   0 C :   -0.200010
   1 C :   -0.203357
   2 H :    0.130945
   3 O :   -0.191516
   4 C :   -0.241607
   5 H :    0.140643
   6 C :   -0.203322
   7 H :    0.135996
   8 C :   -0.200032
   9 H :    0.140644
  10 C :   -0.439346
  11 H :    0.130961

  Mayer bond orders larger than 0.100000
B(  0-C ,  1-C ) :   1.3931 B(  0-C , 10-C ) :   1.1885 B(  0-C , 11-H ) :   0.9799
B(  1-C ,  4-C ) :   1.3574 B(  1-C ,  5-H ) :   0.9584 B(  2-H ,  8-C ) :   0.9799
B(  3-O , 10-C ) :   1.7080 B(  4-C ,  6-C ) :   1.3573 B(  4-C ,  7-H ) :   0.9694
B(  6-C ,  8-C ) :   1.3933 B(  6-C ,  9-H ) :   0.9585 B(  8-C , 10-C ) :   1.1887

Dispersion correction           -0.011457925
FINAL SINGLE POINT ENERGY      -306.747982971304

DIPOLE MOMENT
-------------
                                X             Y             Z
Electronic contribution:     -0.02284       1.94009      -0.00002
Nuclear contribution   :      0.05209      -4.45195       0.00004
                        -----------------------------------------
Total Dipole Moment    :      0.02925      -2.51186       0.00002
                        -----------------------------------------
Magnitude (a.u.)       :      2.51203
Magnitude (Debye)      :      6.38507

Rotational constants in cm-1:     0.189693     0.088983     0.060570
Rotational constants in MHz :  5686.865384  2667.638650  1815.847097

                             ****ORCA TERMINATED NORMALLY****
TOTAL RUN TIME: 0 days 0 hours 4 minutes 1 seconds 365 msec
