   * xtb version 6.7.1 (edcfbbe) compiled by 'albert@albert-system' on 2024-07-22

   ID    Z sym.   atoms
    1    6 C      1-3
    2    8 O      4
    3    1 H      5-9

          program call               : xtb xyz.xyz --charge -1 --ohess
          :  Hamiltonian                  GFN2-xTB          :
 * total energy  :   -13.1877925 Eh     change       -0.2882334E-09 Eh
 * total energy  :   -13.1901895 Eh     change       -0.2396987E-02 Eh
 * total energy  :   -13.1904090 Eh     change       -0.2195234E-03 Eh
 * total energy  :   -13.1904394 Eh     change       -0.3038839E-04 Eh
 * total energy  :   -13.1904407 Eh     change       -0.1331791E-05 Eh
   *** GEOMETRY OPTIMIZATION CONVERGED AFTER 5 ITERATIONS ***

 final structure:
================
9
 xtb: 6.7.1 (edcfbbe)
C           -3.80094154293122       -0.62113313797543       -0.74826924841655
C           -2.71713438215282        0.19376982764814       -0.79458543672032
C           -1.39986525305966       -0.38746916122312       -0.21117240929297
O           -2.65925481248444        1.37324105709858       -1.25941390996713
H           -3.75718855867891       -1.61932659288107       -0.33046436559182
H           -4.76133558429231       -0.30445601044135       -1.13003369386227
H           -1.53402811095128       -1.40152139731200        0.16623290795627
H           -0.62846038676084       -0.39625345476217       -0.98415626488613
H           -1.04620036868853        0.24948286984842        0.60237542078092

          :  Hamiltonian                  GFN2-xTB          :
         :: gradient norm              0.000370516374 Eh/a0 ::
         :: HOMO-LUMO gap              4.760504856264 eV    ::
         :: SCC energy               -13.352196293777 Eh    ::
         :: -> dispersion             -0.004701129107 Eh    ::
         :: repulsion energy           0.161755554120 Eh    ::

    * Orbital Energies and Occupations

         #    Occupation            Energy/Eh            Energy/eV
      -------------------------------------------------------------
         1        2.0000           -0.4154225             -11.3042
         2        2.0000           -0.4017378             -10.9318
         3        2.0000           -0.3593671              -9.7789
         4        2.0000           -0.3140605              -8.5460
         5        2.0000           -0.2982946              -8.1170
         6        2.0000           -0.2940807              -8.0023
         7        2.0000           -0.2733770              -7.4390
         8        2.0000           -0.2339449              -6.3660
         9        2.0000           -0.2192948              -5.9673
        10        2.0000           -0.2181027              -5.9349
        11        2.0000           -0.1225541              -3.3349
        12        2.0000           -0.0999921              -2.7209 (HOMO)
        13                          0.0749533               2.0396 (LUMO)
        14                          0.3004559               8.1758
        15                          0.3414685               9.2918
        16                          0.3719697              10.1218
        17                          0.3922375              10.6733
        18                          0.3955315              10.7630
        19                          0.4899021              13.3309
        20                          0.6911299              18.8066
        21                          0.8503792              23.1400
      -------------------------------------------------------------
                  HL-Gap            0.1749454 Eh            4.7605 eV

     #   Z          covCN         q      C6AA      α(0)
     1   6 C        2.839    -0.220    33.856     9.535
     2   6 C        2.808     0.166    24.410     8.094
     3   6 C        3.752    -0.096    22.399     6.749
     4   8 O        0.857    -0.657    27.570     7.040
     5   1 H        0.925    -0.083     4.995     3.495
     6   1 H        0.926    -0.060     4.333     3.255
     7   1 H        0.924    -0.024     3.517     2.933
     8   1 H        0.924    -0.013     3.295     2.839
     9   1 H        0.924    -0.013     3.295     2.839

Wiberg/Mayer (AO) data.
largest (>0.10) Wiberg bond orders for each atom

     #   Z sym  total        # sym  WBO       # sym  WBO       # sym  WBO
 ---------------------------------------------------------------------------
     1   6 C    3.835 --     2 C    1.612     6 H    0.977     5 H    0.975
                             4 O    0.241
     2   6 C    3.965 --     1 C    1.612     4 O    1.414     3 C    0.936
     3   6 C    3.974 --     7 H    0.989     8 H    0.985     9 H    0.985
                             2 C    0.936
     4   8 O    1.734 --     2 C    1.414     1 C    0.241
     5   1 H    0.993 --     1 C    0.975
     6   1 H    0.996 --     1 C    0.977
     7   1 H    0.999 --     3 C    0.989
     8   1 H    1.000 --     3 C    0.985
     9   1 H    1.000 --     3 C    0.985
 ---------------------------------------------------------------------------

molecular dipole:
                 x           y           z       tot (Debye)
 q only:        5.519      -0.961       1.845
   full:        5.626      -1.266       1.997      15.511

 projected vibrational frequencies (cm⁻¹)
eigval :       -0.00     0.00     0.00     0.00     0.00     0.00
eigval :       45.23   420.44   487.10   490.52   580.92   661.03
eigval :      820.52   969.58   981.75  1038.30  1277.63  1351.57
eigval :     1455.80  1498.79  1513.50  1697.85  2954.01  2966.94
eigval :     2973.84  2997.75  3039.62

   temp. (K)  partition function   enthalpy   heat capacity  entropy
                                   cal/mol     cal/K/mol   cal/K/mol   J/K/mol
 298.15  VIB   8.36                 1333.120      9.663      7.866
         ROT  0.383E+05              888.752      2.981     23.953
         INT  0.320E+06             2221.872     12.644     31.819
         TR   0.417E+27             1481.254      4.968     38.029
         TOT                        3703.1260    17.6121    69.8484   292.2458

       T/K    H(0)-H(T)+PV         H(T)/Eh          T*S/Eh         G(T)/Eh
   ------------------------------------------------------------------------
    298.15    0.590131E-02    0.747536E-01    0.331872E-01    0.415664E-01
   ------------------------------------------------------------------------

         :::::::::::::::::::::::::::::::::::::::::::::::::::::
         ::                  THERMODYNAMIC                  ::
         :::::::::::::::::::::::::::::::::::::::::::::::::::::
         :: total free energy         -13.148874337817 Eh   ::
         ::.................................................::
         :: total energy              -13.190440739657 Eh   ::
         :: zero point energy           0.068852328887 Eh   ::
         :: G(RRHO) w/o ZPVE           -0.027285927047 Eh   ::
         :: G(RRHO) contrib.            0.041566401840 Eh   ::
         :::::::::::::::::::::::::::::::::::::::::::::::::::::

           -------------------------------------------------
          | TOTAL ENERGY              -13.190440739657 Eh   |
          | TOTAL ENTHALPY            -13.115687103858 Eh   |
          | TOTAL FREE ENERGY         -13.148874337817 Eh   |
          | GRADIENT NORM               0.000370494426 Eh/α |
          | HOMO-LUMO GAP               4.760505913010 eV   |
           -------------------------------------------------

 * finished run on 2025/10/18 at 01:55:53.207
