   * xtb version 6.7.1 (edcfbbe) compiled by 'albert@albert-system' on 2024-07-22

   ID    Z sym.   atoms
    1    6 C      1, 2
    2    7 N      3
    3    8 O      4, 9
    4    1 H      5-8, 10, 11

          program call               : xtb tb_lite_results_shiftn0p15_gp252_b0_rot90_complex.xyz --ohess --chrg -1 --alpb water
      * Solvation model:               ALPB
        Solvent                        water
        Solvent mass                       1.8000E+01 g/mol
          :  Hamiltonian                  GFN2-xTB          :
 * total energy  :   -18.6933104 Eh     change       -0.5002221E-11 Eh
 * total energy  :   -18.6979593 Eh     change       -0.4648897E-02 Eh
 * total energy  :   -18.6986100 Eh     change       -0.6507538E-03 Eh
 * total energy  :   -18.6987165 Eh     change       -0.1064451E-03 Eh
 * total energy  :   -18.6988211 Eh     change       -0.1046707E-03 Eh
 * total energy  :   -18.6989005 Eh     change       -0.7936707E-04 Eh
 * total energy  :   -18.6990157 Eh     change       -0.1151385E-03 Eh
 * total energy  :   -18.6991536 Eh     change       -0.1379611E-03 Eh
 * total energy  :   -18.6992257 Eh     change       -0.7206818E-04 Eh
 * total energy  :   -18.6993801 Eh     change       -0.1544073E-03 Eh
 * total energy  :   -18.7005914 Eh     change       -0.2486443E-05 Eh
 * total energy  :   -18.7005963 Eh     change       -0.4831318E-05 Eh
 * total energy  :   -18.7005995 Eh     change       -0.3274776E-05 Eh
 * total energy  :   -18.7001134 Eh     change        0.4861255E-03 Eh
 * total energy  :   -18.7006130 Eh     change       -0.4995702E-03 Eh
 * total energy  :   -18.7006213 Eh     change       -0.8331756E-05 Eh
 * total energy  :   -18.7006272 Eh     change       -0.5860600E-05 Eh
 * total energy  :   -18.7006311 Eh     change       -0.3918695E-05 Eh
 * total energy  :   -18.7006346 Eh     change       -0.3540233E-05 Eh
   *** GEOMETRY OPTIMIZATION CONVERGED AFTER 57 ITERATIONS ***

 final structure:
================
11
 xtb: 6.7.1 (edcfbbe)
C           -3.86065293352666       -0.69180104834657       -0.68866131542196
C           -2.54915984186560        0.08635204253059       -0.70444595885442
N           -1.47842670021718       -0.63150833232369       -0.61862180294824
O           -2.62688864510809        1.36089047159986       -0.80199159962479
H           -4.48371273515313       -0.31862637071989        0.12154349779441
H           -4.38076821013992       -0.52533857773853       -1.62985918241569
H           -3.65202432331736       -1.74707782553268       -0.55397001534204
H           -0.64338160866300       -0.03915855737981       -0.63988271233569
O           -0.40153418950061        2.79288896042854       -0.80661072574264
H           -1.22215120727690        2.22626747399504       -0.81509805610930
H           -0.72580935580742        3.68724432846594       -0.65742162298276

          :  Hamiltonian                  GFN2-xTB          :
         :: gradient norm              0.000610461034 Eh/a0 ::
         :: HOMO-LUMO gap              5.147515502229 eV    ::
         :: SCC energy               -18.868684850826 Eh    ::
         :: -> dispersion             -0.005126635561 Eh    ::
         :: -> Gsolv                  -0.115724167033 Eh    ::
         :: repulsion energy           0.168050221557 Eh    ::

    * Orbital Energies and Occupations

         #    Occupation            Energy/Eh            Energy/eV
      -------------------------------------------------------------
         1        2.0000           -0.6541467             -17.8002
       ...           ...                  ...                  ...
         4        2.0000           -0.5758473             -15.6696
         5        2.0000           -0.5388224             -14.6621
         6        2.0000           -0.5149008             -14.0112
         7        2.0000           -0.4930635             -13.4169
         8        2.0000           -0.4861176             -13.2279
         9        2.0000           -0.4818940             -13.1130
        10        2.0000           -0.4610538             -12.5459
        11        2.0000           -0.4400313             -11.9739
        12        2.0000           -0.4371803             -11.8963
        13        2.0000           -0.4186766             -11.3928
        14        2.0000           -0.3618678              -9.8469
        15        2.0000           -0.3484177              -9.4809
        16        2.0000           -0.3403329              -9.2609 (HOMO)
        17                         -0.1511651              -4.1134 (LUMO)
        18                          0.0968076               2.6343
        19                          0.1505663               4.0971
        20                          0.1779615               4.8426
        21                          0.2091876               5.6923
        22                          0.2336530               6.3580
        23                          0.2343974               6.3783
        24                          0.2897750               7.8852
        25                          0.3877040              10.5500
        26                          0.6193571              16.8536
      -------------------------------------------------------------
                  HL-Gap            0.1891678 Eh            5.1475 eV

     #   Z          covCN         q      C6AA      α(0)
     1   6 C        3.758    -0.123    22.916     6.825
     2   6 C        2.741     0.259    22.629     7.789
     3   7 N        1.778    -0.550    35.993     8.885
     4   8 O        0.857    -0.711    29.017     7.222
     5   1 H        0.925     0.031     2.566     2.505
     6   1 H        0.925     0.032     2.562     2.503
     7   1 H        0.925     0.041     2.439     2.442
     8   1 H        0.860     0.092     1.872     2.143
     9   8 O        1.605    -0.712    28.047     7.148
    10   1 H        0.800     0.296     0.733     1.345
    11   1 H        0.805     0.346     0.598     1.215

Wiberg/Mayer (AO) data.
largest (>0.10) Wiberg bond orders for each atom

     #   Z sym  total        # sym  WBO       # sym  WBO       # sym  WBO
 ---------------------------------------------------------------------------
     1   6 C    3.997 --     7 H    0.990     5 H    0.980     6 H    0.979
                             2 C    0.974
     2   6 C    3.953 --     3 N    1.618     4 O    1.351     1 C    0.974
     3   7 N    2.841 --     2 C    1.618     8 H    0.962     4 O    0.220
     4   8 O    1.752 --     2 C    1.351     3 N    0.220
     5   1 H    0.999 --     1 C    0.980
     6   1 H    0.999 --     1 C    0.979
     7   1 H    0.998 --     1 C    0.990
     8   1 H    0.992 --     3 N    0.962
     9   8 O    1.746 --    11 H    0.880    10 H    0.819
    10   1 H    0.912 --     9 O    0.819
    11   1 H    0.880 --     9 O    0.880
 ---------------------------------------------------------------------------

molecular dipole:
                 x           y           z       tot (Debye)
 q only:        3.179      -1.265       1.492
   full:        2.932      -0.989       1.491       8.731

 projected vibrational frequencies (cm⁻¹)
eigval :       -0.00    -0.00    -0.00    -0.00     0.00     0.00
eigval :       49.03    66.40    79.25   141.88   229.54   429.81
eigval :      524.78   543.28   585.39   798.68   834.30   904.20
eigval :     1002.47  1011.94  1228.33  1340.83  1381.42  1466.45
eigval :     1472.09  1539.76  1634.04  2834.07  3006.05  3015.64
eigval :     3060.66  3277.35  3604.02

   temp. (K)  partition function   enthalpy   heat capacity  entropy
                                   cal/mol     cal/K/mol   cal/K/mol   J/K/mol
 298.15  VIB   252.                 2986.882     16.730     19.976
         ROT  0.125E+06              888.752      2.981     26.309
         INT  0.316E+08             3875.635     19.711     46.285
         TR   0.642E+27             1481.254      4.968     38.885
         TOT                        5356.8887    24.6790    85.1706   356.3536

       T/K    H(0)-H(T)+PV         H(T)/Eh          T*S/Eh         G(T)/Eh
   ------------------------------------------------------------------------
    298.15    0.853675E-02    0.906913E-01    0.404673E-01    0.502240E-01
   ------------------------------------------------------------------------

         :::::::::::::::::::::::::::::::::::::::::::::::::::::
         ::                  THERMODYNAMIC                  ::
         :::::::::::::::::::::::::::::::::::::::::::::::::::::
         :: total free energy         -18.650410645893 Eh   ::
         ::.................................................::
         :: total energy              -18.700634630512 Eh   ::
         :: zero point energy           0.082154521033 Eh   ::
         :: G(RRHO) w/o ZPVE           -0.031930536415 Eh   ::
         :: G(RRHO) contrib.            0.050223984619 Eh   ::
         :::::::::::::::::::::::::::::::::::::::::::::::::::::

           -------------------------------------------------
          | TOTAL ENERGY              -18.700634630512 Eh   |
          | TOTAL ENTHALPY            -18.609943363916 Eh   |
          | TOTAL FREE ENERGY         -18.650410645893 Eh   |
          | GRADIENT NORM               0.000610348274 Eh/α |
          | HOMO-LUMO GAP               5.147518887197 eV   |
           -------------------------------------------------

 * finished run on 2025/10/18 at 04:34:05.660
normal termination of xtb
