   * xtb version 6.7.1 (edcfbbe) compiled by 'albert@albert-system' on 2024-07-22

   ID    Z sym.   atoms
    1    6 C      1, 2
    2    7 N      3
    3    8 O      4, 9
    4    1 H      5-8, 10, 11

          program call               : xtb tb_lite_results_shiftn0p1_gp280_b0_rot270_complex.xyz --ohess --chrg -1 --alpb water
      * Solvation model:               ALPB
        Solvent                        water
        Solvent mass                       1.8000E+01 g/mol
          :  Hamiltonian                  GFN2-xTB          :
 * total energy  :   -18.6935537 Eh     change       -0.3925749E-11 Eh
 * total energy  :   -18.6979644 Eh     change       -0.4410632E-02 Eh
 * total energy  :   -18.6986347 Eh     change       -0.6702985E-03 Eh
 * total energy  :   -18.6987671 Eh     change       -0.1324098E-03 Eh
 * total energy  :   -18.6988665 Eh     change       -0.9944934E-04 Eh
 * total energy  :   -18.6989238 Eh     change       -0.5725930E-04 Eh
 * total energy  :   -18.6990218 Eh     change       -0.9795969E-04 Eh
 * total energy  :   -18.6990963 Eh     change       -0.7454971E-04 Eh
 * total energy  :   -18.6991928 Eh     change       -0.9653610E-04 Eh
 * total energy  :   -18.6993481 Eh     change       -0.1552594E-03 Eh
 * total energy  :   -18.7005546 Eh     change       -0.1483928E-04 Eh
 * total energy  :   -18.7005674 Eh     change       -0.1277586E-04 Eh
 * total energy  :   -18.7005773 Eh     change       -0.9940414E-05 Eh
 * total energy  :   -18.7005885 Eh     change       -0.1116398E-04 Eh
 * total energy  :   -18.7005969 Eh     change       -0.8372964E-05 Eh
 * total energy  :   -18.7006017 Eh     change       -0.4852449E-05 Eh
 * total energy  :   -18.7006063 Eh     change       -0.4639379E-05 Eh
 * total energy  :   -18.7006056 Eh     change        0.7491225E-06 Eh
 * total energy  :   -18.7006094 Eh     change       -0.3828822E-05 Eh
   *** GEOMETRY OPTIMIZATION CONVERGED AFTER 52 ITERATIONS ***

 final structure:
================
11
 xtb: 6.7.1 (edcfbbe)
C           -3.84699393729201       -0.65884011875076       -0.68261227080822
C           -2.49407325946273        0.01400261240238       -0.88927633157338
N           -1.54288580230238       -0.41274611657554       -0.12660986310992
O           -2.42462668635503        0.92626265823008       -1.78499531873328
H           -4.57616318672979        0.09552026438304       -0.39452588589015
H           -4.16604600845966       -1.10779432359320       -1.62083949276079
H           -3.75765885158542       -1.41447780496753        0.08952848657178
H           -0.67023827475719        0.08605393439939       -0.32171834088553
O           -0.09417369404215        2.09681263352499       -2.23249021453556
H           -0.96538925798682        1.65632045301960       -2.03080503315005
H           -0.20229335981615        2.46168210661395       -3.11701751314798

          :  Hamiltonian                  GFN2-xTB          :
         :: gradient norm              0.000693351676 Eh/a0 ::
         :: HOMO-LUMO gap              5.149489535563 eV    ::
         :: SCC energy               -18.868871759031 Eh    ::
         :: -> dispersion             -0.005131684027 Eh    ::
         :: -> Gsolv                  -0.115731937462 Eh    ::
         :: repulsion energy           0.168262330514 Eh    ::

    * Orbital Energies and Occupations

         #    Occupation            Energy/Eh            Energy/eV
      -------------------------------------------------------------
         1        2.0000           -0.6541690             -17.8008
       ...           ...                  ...                  ...
         4        2.0000           -0.5757955             -15.6682
         5        2.0000           -0.5389389             -14.6653
         6        2.0000           -0.5148990             -14.0111
         7        2.0000           -0.4929415             -13.4136
         8        2.0000           -0.4861072             -13.2277
         9        2.0000           -0.4818526             -13.1119
        10        2.0000           -0.4609693             -12.5436
        11        2.0000           -0.4400132             -11.9734
        12        2.0000           -0.4371928             -11.8966
        13        2.0000           -0.4186596             -11.3923
        14        2.0000           -0.3617623              -9.8441
        15        2.0000           -0.3483682              -9.4796
        16        2.0000           -0.3402260              -9.2580 (HOMO)
        17                         -0.1509861              -4.1085 (LUMO)
        18                          0.0968851               2.6364
        19                          0.1505969               4.0979
        20                          0.1780377               4.8447
        21                          0.2097699               5.7081
        22                          0.2340680               6.3693
        23                          0.2343899               6.3781
        24                          0.2907274               7.9111
        25                          0.3882023              10.5635
        26                          0.6202320              16.8774
      -------------------------------------------------------------
                  HL-Gap            0.1892399 Eh            5.1495 eV

     #   Z          covCN         q      C6AA      α(0)
     1   6 C        3.758    -0.123    22.918     6.825
     2   6 C        2.741     0.259    22.627     7.788
     3   7 N        1.779    -0.550    35.997     8.885
     4   8 O        0.857    -0.711    29.019     7.222
     5   1 H        0.925     0.031     2.567     2.505
     6   1 H        0.925     0.032     2.564     2.504
     7   1 H        0.925     0.041     2.438     2.442
     8   1 H        0.860     0.092     1.870     2.142
     9   8 O        1.605    -0.712    28.047     7.147
    10   1 H        0.800     0.296     0.733     1.345
    11   1 H        0.805     0.346     0.598     1.215

Wiberg/Mayer (AO) data.
largest (>0.10) Wiberg bond orders for each atom

     #   Z sym  total        # sym  WBO       # sym  WBO       # sym  WBO
 ---------------------------------------------------------------------------
     1   6 C    3.997 --     7 H    0.990     6 H    0.980     5 H    0.979
                             2 C    0.974
     2   6 C    3.953 --     3 N    1.618     4 O    1.351     1 C    0.974
     3   7 N    2.841 --     2 C    1.618     8 H    0.962     4 O    0.220
     4   8 O    1.752 --     2 C    1.351     3 N    0.220
     5   1 H    0.999 --     1 C    0.979
     6   1 H    0.999 --     1 C    0.980
     7   1 H    0.998 --     1 C    0.990
     8   1 H    0.991 --     3 N    0.962
     9   8 O    1.746 --    11 H    0.880    10 H    0.819
    10   1 H    0.912 --     9 O    0.819
    11   1 H    0.880 --     9 O    0.880
 ---------------------------------------------------------------------------

molecular dipole:
                 x           y           z       tot (Debye)
 q only:        3.065      -1.097       1.917
   full:        2.871      -0.950       1.640       8.745

 projected vibrational frequencies (cm⁻¹)
eigval :       -0.00     0.00     0.00     0.00     0.00     0.00
eigval :      -51.67    54.19    65.13    74.37   228.69   425.71
eigval :      509.24   542.71   581.77   794.86   832.30   903.40
eigval :     1001.94  1011.43  1227.59  1338.59  1380.98  1466.01
eigval :     1471.33  1535.06  1635.06  2839.56  3007.20  3016.60
eigval :     3059.38  3279.03  3604.19

   temp. (K)  partition function   enthalpy   heat capacity  entropy
                                   cal/mol     cal/K/mol   cal/K/mol   J/K/mol
 298.15  VIB   124.                 2588.121     14.954     17.350
         ROT  0.125E+06              888.752      2.981     26.304
         INT  0.155E+08             3476.873     17.935     43.654
         TR   0.642E+27             1481.254      4.968     38.885
         TOT                        4958.1268    22.9032    82.5392   345.3441

       T/K    H(0)-H(T)+PV         H(T)/Eh          T*S/Eh         G(T)/Eh
   ------------------------------------------------------------------------
    298.15    0.790128E-02    0.896563E-01    0.392170E-01    0.504393E-01
   ------------------------------------------------------------------------

         :::::::::::::::::::::::::::::::::::::::::::::::::::::
         ::                  THERMODYNAMIC                  ::
         :::::::::::::::::::::::::::::::::::::::::::::::::::::
         :: total free energy         -18.650170125959 Eh   ::
         ::.................................................::
         :: total energy              -18.700609428215 Eh   ::
         :: zero point energy           0.081755067612 Eh   ::
         :: G(RRHO) w/o ZPVE           -0.031315765356 Eh   ::
         :: G(RRHO) contrib.            0.050439302256 Eh   ::
         :::::::::::::::::::::::::::::::::::::::::::::::::::::

           -------------------------------------------------
          | TOTAL ENERGY              -18.700609428215 Eh   |
          | TOTAL ENTHALPY            -18.610953082613 Eh   |
          | TOTAL FREE ENERGY         -18.650170125959 Eh   |
          | GRADIENT NORM               0.000694264331 Eh/α |
          | HOMO-LUMO GAP               5.149479902691 eV   |
           -------------------------------------------------

 * finished run on 2025/10/18 at 04:34:10.601
normal termination of xtb
