   * xtb version 6.7.1 (edcfbbe) compiled by 'albert@albert-system' on 2024-07-22

   ID    Z sym.   atoms
    1    6 C      1, 2
    2    7 N      3
    3    8 O      4, 9
    4    1 H      5-8, 10, 11

          program call               : xtb tb_lite_results_shiftn0p15_gp281_b0_rot180_complex.xyz --ohess --chrg -1 --alpb water
      * Solvation model:               ALPB
        Solvent                        water
        Solvent mass                       1.8000E+01 g/mol
          :  Hamiltonian                  GFN2-xTB          :
 * total energy  :   -18.6934676 Eh     change       -0.1468337E-10 Eh
 * total energy  :   -18.6980488 Eh     change       -0.4581168E-02 Eh
 * total energy  :   -18.6986566 Eh     change       -0.6078109E-03 Eh
 * total energy  :   -18.6987342 Eh     change       -0.7754650E-04 Eh
 * total energy  :   -18.6988161 Eh     change       -0.8194571E-04 Eh
 * total energy  :   -18.6988740 Eh     change       -0.5785379E-04 Eh
 * total energy  :   -18.6989645 Eh     change       -0.9052488E-04 Eh
 * total energy  :   -18.6991401 Eh     change       -0.1756068E-03 Eh
 * total energy  :   -18.6992798 Eh     change       -0.1396591E-03 Eh
 * total energy  :   -18.6991041 Eh     change        0.1757122E-03 Eh
 * total energy  :   -18.7004867 Eh     change       -0.6211781E-04 Eh
 * total energy  :   -18.7004983 Eh     change       -0.1164681E-04 Eh
 * total energy  :   -18.7005123 Eh     change       -0.1401479E-04 Eh
 * total energy  :   -18.7005023 Eh     change        0.1003559E-04 Eh
 * total energy  :   -18.7005581 Eh     change       -0.5581127E-04 Eh
 * total energy  :   -18.7005723 Eh     change       -0.1412904E-04 Eh
 * total energy  :   -18.7005756 Eh     change       -0.3352664E-05 Eh
 * total energy  :   -18.7005829 Eh     change       -0.7284619E-05 Eh
 * total energy  :   -18.7005860 Eh     change       -0.3064346E-05 Eh
   *** GEOMETRY OPTIMIZATION CONVERGED AFTER 38 ITERATIONS ***

 final structure:
================
11
 xtb: 6.7.1 (edcfbbe)
C           -3.80321080611054       -0.71740896068910       -0.62202703976651
C           -2.53096170629242        0.07351023541847       -0.90131089406615
N           -1.45979570839622       -0.38290586736231       -0.33725916179698
O           -2.60808123528102        1.09871587753836       -1.66397154025984
H           -4.59919898713145       -0.03129209722320       -0.34060737847412
H           -4.10105185982525       -1.23568133273358       -1.53173067261318
H           -3.61398429024185       -1.43567766196874        0.16805260825182
H           -0.65440463687365        0.20046222205731       -0.58209480255447
O           -5.00520109942487        2.13516741966064       -2.16683082100264
H           -4.10861843068468        1.76950605765206       -1.94760388909932
H           -5.01143846851049        2.20904698539327       -3.12662476569875

          :  Hamiltonian                  GFN2-xTB          :
         :: gradient norm              0.000438660106 Eh/a0 ::
         :: HOMO-LUMO gap              5.127098885967 eV    ::
         :: SCC energy               -18.868836888461 Eh    ::
         :: -> dispersion             -0.005236518992 Eh    ::
         :: -> Gsolv                  -0.114655576997 Eh    ::
         :: repulsion energy           0.168250933260 Eh    ::

    * Orbital Energies and Occupations

         #    Occupation            Energy/Eh            Energy/eV
      -------------------------------------------------------------
         1        2.0000           -0.6526012             -17.7582
       ...           ...                  ...                  ...
         4        2.0000           -0.5756110             -15.6632
         5        2.0000           -0.5329132             -14.5013
         6        2.0000           -0.5184368             -14.1074
         7        2.0000           -0.4934756             -13.4282
         8        2.0000           -0.4847220             -13.1900
         9        2.0000           -0.4827713             -13.1369
        10        2.0000           -0.4558383             -12.4040
        11        2.0000           -0.4397085             -11.9651
        12        2.0000           -0.4355994             -11.8533
        13        2.0000           -0.4173376             -11.3563
        14        2.0000           -0.3629047              -9.8751
        15        2.0000           -0.3480434              -9.4707
        16        2.0000           -0.3399483              -9.2505 (HOMO)
        17                         -0.1515308              -4.1234 (LUMO)
        18                          0.1203160               3.2740
        19                          0.1234486               3.3592
        20                          0.1866911               5.0801
        21                          0.2069806               5.6322
        22                          0.2334062               6.3513
        23                          0.2386808               6.4948
        24                          0.2853413               7.7645
        25                          0.4110595              11.1855
        26                          0.6014180              16.3654
      -------------------------------------------------------------
                  HL-Gap            0.1884175 Eh            5.1271 eV

     #   Z          covCN         q      C6AA      α(0)
     1   6 C        3.758    -0.125    22.948     6.830
     2   6 C        2.741     0.260    22.617     7.787
     3   7 N        1.779    -0.554    36.111     8.899
     4   8 O        0.857    -0.715    29.133     7.237
     5   1 H        0.925     0.035     2.518     2.481
     6   1 H        0.925     0.033     2.543     2.494
     7   1 H        0.925     0.038     2.470     2.458
     8   1 H        0.860     0.089     1.902     2.161
     9   8 O        1.606    -0.705    27.859     7.124
    10   1 H        0.801     0.300     0.721     1.334
    11   1 H        0.805     0.344     0.602     1.219

Wiberg/Mayer (AO) data.
largest (>0.10) Wiberg bond orders for each atom

     #   Z sym  total        # sym  WBO       # sym  WBO       # sym  WBO
 ---------------------------------------------------------------------------
     1   6 C    3.997 --     7 H    0.989     5 H    0.980     6 H    0.976
                             2 C    0.976
     2   6 C    3.952 --     3 N    1.610     4 O    1.355     1 C    0.976
     3   7 N    2.834 --     2 C    1.610     8 H    0.965     4 O    0.215
     4   8 O    1.741 --     2 C    1.355     3 N    0.215
     5   1 H    0.999 --     1 C    0.980
     6   1 H    0.999 --     1 C    0.976
     7   1 H    0.999 --     1 C    0.989
     8   1 H    0.992 --     3 N    0.965
     9   8 O    1.752 --    11 H    0.881    10 H    0.828
    10   1 H    0.910 --     9 O    0.828
    11   1 H    0.882 --     9 O    0.881
 ---------------------------------------------------------------------------

molecular dipole:
                 x           y           z       tot (Debye)
 q only:        4.859      -1.435       1.854
   full:        4.970      -1.312       1.588      13.675

 projected vibrational frequencies (cm⁻¹)
eigval :       -0.00    -0.00    -0.00     0.00     0.00     0.00
eigval :       46.03    78.41   117.18   141.03   231.61   418.67
eigval :      497.13   542.83   573.86   812.15   815.10   900.07
eigval :     1006.29  1014.25  1223.61  1345.43  1384.12  1470.74
eigval :     1475.18  1535.63  1626.97  2930.27  3005.19  3021.36
eigval :     3056.77  3265.98  3607.49

   temp. (K)  partition function   enthalpy   heat capacity  entropy
                                   cal/mol     cal/K/mol   cal/K/mol   J/K/mol
 298.15  VIB   175.                 2953.012     16.952     19.241
         ROT  0.128E+06              888.752      2.981     26.346
         INT  0.223E+08             3841.764     19.933     45.587
         TR   0.642E+27             1481.254      4.968     38.885
         TOT                        5323.0181    24.9015    84.4718   353.4299

       T/K    H(0)-H(T)+PV         H(T)/Eh          T*S/Eh         G(T)/Eh
   ------------------------------------------------------------------------
    298.15    0.848277E-02    0.908234E-01    0.401353E-01    0.506881E-01
   ------------------------------------------------------------------------

         :::::::::::::::::::::::::::::::::::::::::::::::::::::
         ::                  THERMODYNAMIC                  ::
         :::::::::::::::::::::::::::::::::::::::::::::::::::::
         :: total free energy         -18.649897828186 Eh   ::
         ::.................................................::
         :: total energy              -18.700585954372 Eh   ::
         :: zero point energy           0.082340626917 Eh   ::
         :: G(RRHO) w/o ZPVE           -0.031652500730 Eh   ::
         :: G(RRHO) contrib.            0.050688126187 Eh   ::
         :::::::::::::::::::::::::::::::::::::::::::::::::::::

           -------------------------------------------------
          | TOTAL ENERGY              -18.700585954372 Eh   |
          | TOTAL ENTHALPY            -18.609762558198 Eh   |
          | TOTAL FREE ENERGY         -18.649897828186 Eh   |
          | GRADIENT NORM               0.000438583058 Eh/α |
          | HOMO-LUMO GAP               5.127101379509 eV   |
           -------------------------------------------------

 * finished run on 2025/10/18 at 04:34:09.075
normal termination of xtb
