   * xtb version 6.7.1 (edcfbbe) compiled by 'albert@albert-system' on 2024-07-22

   ID    Z sym.   atoms
    1    6 C      1, 2
    2    7 N      3
    3    8 O      4, 9
    4    1 H      5-8, 10, 11

          program call               : xtb tb_lite_results_shiftn0p15_gp280_b0_rot270_complex.xyz --ohess --chrg -1 --alpb water
      * Solvation model:               ALPB
        Solvent                        water
        Solvent mass                       1.8000E+01 g/mol
          :  Hamiltonian                  GFN2-xTB          :
 * total energy  :   -18.6933368 Eh     change       -0.4376233E-10 Eh
 * total energy  :   -18.6980150 Eh     change       -0.4678261E-02 Eh
 * total energy  :   -18.6986621 Eh     change       -0.6470815E-03 Eh
 * total energy  :   -18.6987722 Eh     change       -0.1100614E-03 Eh
 * total energy  :   -18.6988710 Eh     change       -0.9879121E-04 Eh
 * total energy  :   -18.6989404 Eh     change       -0.6947558E-04 Eh
 * total energy  :   -18.6990544 Eh     change       -0.1140038E-03 Eh
 * total energy  :   -18.6991070 Eh     change       -0.5253130E-04 Eh
 * total energy  :   -18.6992462 Eh     change       -0.1392782E-03 Eh
 * total energy  :   -18.6993538 Eh     change       -0.1075241E-03 Eh
 * total energy  :   -18.7005551 Eh     change       -0.1552684E-04 Eh
 * total energy  :   -18.7005693 Eh     change       -0.1420216E-04 Eh
 * total energy  :   -18.7005763 Eh     change       -0.6975496E-05 Eh
 * total energy  :   -18.7005833 Eh     change       -0.7006951E-05 Eh
 * total energy  :   -18.7005899 Eh     change       -0.6616178E-05 Eh
 * total energy  :   -18.7005915 Eh     change       -0.1524226E-05 Eh
 * total energy  :   -18.7006001 Eh     change       -0.8591094E-05 Eh
 * total energy  :   -18.7006051 Eh     change       -0.5033906E-05 Eh
 * total energy  :   -18.7006089 Eh     change       -0.3767305E-05 Eh
   *** GEOMETRY OPTIMIZATION CONVERGED AFTER 54 ITERATIONS ***

 final structure:
================
11
 xtb: 6.7.1 (edcfbbe)
C           -3.85145431934499       -0.66793694802447       -0.66441220607694
C           -2.50453067530364        0.01430527232039       -0.87950856553800
N           -1.55310097383507       -0.38488366232250       -0.10202019077533
O           -2.43948832142765        0.90642275099268       -1.79604734811631
H           -4.58792081517581        0.08401102707467       -0.38848996078572
H           -4.16525049702788       -1.13394287464091       -1.59615597001048
H           -3.75601786854686       -1.41065037455952        0.11947058278273
H           -0.68464300900254        0.11853053373363       -0.30421227018619
O           -0.11712258423004        2.09134483422607       -2.24916727736355
H           -0.98480301657598        1.64551611541061       -2.04303675888503
H           -0.22052573552167        2.42072620353359       -3.14842839212518

          :  Hamiltonian                  GFN2-xTB          :
         :: gradient norm              0.000224841397 Eh/a0 ::
         :: HOMO-LUMO gap              5.147192406254 eV    ::
         :: SCC energy               -18.868660362928 Eh    ::
         :: -> dispersion             -0.005133225179 Eh    ::
         :: -> Gsolv                  -0.115692949883 Eh    ::
         :: repulsion energy           0.168051507413 Eh    ::

    * Orbital Energies and Occupations

         #    Occupation            Energy/Eh            Energy/eV
      -------------------------------------------------------------
         1        2.0000           -0.6541913             -17.8015
       ...           ...                  ...                  ...
         4        2.0000           -0.5758052             -15.6685
         5        2.0000           -0.5388444             -14.6627
         6        2.0000           -0.5148946             -14.0110
         7        2.0000           -0.4929928             -13.4150
         8        2.0000           -0.4861033             -13.2275
         9        2.0000           -0.4820483             -13.1172
        10        2.0000           -0.4609679             -12.5436
        11        2.0000           -0.4400371             -11.9740
        12        2.0000           -0.4371885             -11.8965
        13        2.0000           -0.4187080             -11.3936
        14        2.0000           -0.3618187              -9.8456
        15        2.0000           -0.3484138              -9.4808
        16        2.0000           -0.3403056              -9.2602 (HOMO)
        17                         -0.1511498              -4.1130 (LUMO)
        18                          0.0966720               2.6306
        19                          0.1505695               4.0972
        20                          0.1779017               4.8410
        21                          0.2096103               5.7038
        22                          0.2338821               6.3643
        23                          0.2342362               6.3739
        24                          0.2899332               7.8895
        25                          0.3874975              10.5443
        26                          0.6194277              16.8555
      -------------------------------------------------------------
                  HL-Gap            0.1891558 Eh            5.1472 eV

     #   Z          covCN         q      C6AA      α(0)
     1   6 C        3.758    -0.123    22.918     6.825
     2   6 C        2.741     0.259    22.630     7.789
     3   7 N        1.779    -0.550    35.993     8.885
     4   8 O        0.857    -0.711    29.021     7.223
     5   1 H        0.925     0.031     2.566     2.505
     6   1 H        0.925     0.032     2.564     2.504
     7   1 H        0.925     0.041     2.437     2.441
     8   1 H        0.860     0.092     1.870     2.142
     9   8 O        1.605    -0.712    28.043     7.147
    10   1 H        0.800     0.296     0.733     1.345
    11   1 H        0.805     0.346     0.599     1.215

Wiberg/Mayer (AO) data.
largest (>0.10) Wiberg bond orders for each atom

     #   Z sym  total        # sym  WBO       # sym  WBO       # sym  WBO
 ---------------------------------------------------------------------------
     1   6 C    3.997 --     7 H    0.990     6 H    0.980     5 H    0.979
                             2 C    0.974
     2   6 C    3.953 --     3 N    1.618     4 O    1.351     1 C    0.974
     3   7 N    2.841 --     2 C    1.618     8 H    0.962     4 O    0.220
     4   8 O    1.752 --     2 C    1.351     3 N    0.220
     5   1 H    0.999 --     1 C    0.979
     6   1 H    0.999 --     1 C    0.980
     7   1 H    0.998 --     1 C    0.990
     8   1 H    0.991 --     3 N    0.962
     9   8 O    1.746 --    11 H    0.880    10 H    0.819
    10   1 H    0.912 --     9 O    0.819
    11   1 H    0.880 --     9 O    0.880
 ---------------------------------------------------------------------------

molecular dipole:
                 x           y           z       tot (Debye)
 q only:        3.097      -1.119       1.910
   full:        2.903      -0.983       1.628       8.821

 projected vibrational frequencies (cm⁻¹)
eigval :       -0.00    -0.00    -0.00     0.00     0.00     0.00
eigval :       54.43    70.86    74.10    85.59   228.75   425.96
eigval :      514.52   543.06   582.43   795.38   832.15   903.27
eigval :     1002.07  1011.89  1227.48  1338.54  1380.82  1467.00
eigval :     1471.29  1537.28  1633.94  2836.59  3006.44  3015.88
eigval :     3059.33  3278.22  3601.74

   temp. (K)  partition function   enthalpy   heat capacity  entropy
                                   cal/mol     cal/K/mol   cal/K/mol   J/K/mol
 298.15  VIB   341.                 3056.331     16.854     20.928
         ROT  0.125E+06              888.752      2.981     26.302
         INT  0.426E+08             3945.084     19.835     47.230
         TR   0.642E+27             1481.254      4.968     38.885
         TOT                        5426.3378    24.8033    86.1152   360.3061

       T/K    H(0)-H(T)+PV         H(T)/Eh          T*S/Eh         G(T)/Eh
   ------------------------------------------------------------------------
    298.15    0.864742E-02    0.906136E-01    0.409161E-01    0.496975E-01
   ------------------------------------------------------------------------

         :::::::::::::::::::::::::::::::::::::::::::::::::::::
         ::                  THERMODYNAMIC                  ::
         :::::::::::::::::::::::::::::::::::::::::::::::::::::
         :: total free energy         -18.650911404313 Eh   ::
         ::.................................................::
         :: total energy              -18.700608854486 Eh   ::
         :: zero point energy           0.081966151235 Eh   ::
         :: G(RRHO) w/o ZPVE           -0.032268701062 Eh   ::
         :: G(RRHO) contrib.            0.049697450173 Eh   ::
         :::::::::::::::::::::::::::::::::::::::::::::::::::::

           -------------------------------------------------
          | TOTAL ENERGY              -18.700608854486 Eh   |
          | TOTAL ENTHALPY            -18.609995283577 Eh   |
          | TOTAL FREE ENERGY         -18.650911404313 Eh   |
          | GRADIENT NORM               0.000224904866 Eh/α |
          | HOMO-LUMO GAP               5.147190800828 eV   |
           -------------------------------------------------

 * finished run on 2025/10/18 at 04:34:03.187
normal termination of xtb
