   * xtb version 6.7.1 (edcfbbe) compiled by 'albert@albert-system' on 2024-07-22

   ID    Z sym.   atoms
    1    6 C      1, 2
    2    7 N      3
    3    8 O      4, 9
    4    1 H      5-8, 10, 11

          program call               : xtb tb_lite_results_shiftn0p2_gp280_b0_rot270_complex.xyz --ohess --chrg -1 --alpb water
      * Solvation model:               ALPB
        Solvent                        water
        Solvent mass                       1.8000E+01 g/mol
          :  Hamiltonian                  GFN2-xTB          :
 * total energy  :   -18.6928502 Eh     change       -0.4973799E-11 Eh
 * total energy  :   -18.6979878 Eh     change       -0.5137567E-02 Eh
 * total energy  :   -18.6986627 Eh     change       -0.6748664E-03 Eh
 * total energy  :   -18.6987646 Eh     change       -0.1019592E-03 Eh
 * total energy  :   -18.6988678 Eh     change       -0.1031870E-03 Eh
 * total energy  :   -18.6989407 Eh     change       -0.7286072E-04 Eh
 * total energy  :   -18.6990316 Eh     change       -0.9089403E-04 Eh
 * total energy  :   -18.6991900 Eh     change       -0.1584780E-03 Eh
 * total energy  :   -18.6993148 Eh     change       -0.1248049E-03 Eh
 * total energy  :   -18.6994324 Eh     change       -0.1175828E-03 Eh
 * total energy  :   -18.7000942 Eh     change       -0.3904995E-02 Eh
 * total energy  :   -18.7005051 Eh     change       -0.4108350E-03 Eh
 * total energy  :   -18.7005659 Eh     change       -0.6085833E-04 Eh
 * total energy  :   -18.7005674 Eh     change       -0.1491187E-05 Eh
 * total energy  :   -18.7005949 Eh     change       -0.2748342E-04 Eh
 * total energy  :   -18.7006106 Eh     change       -0.1566318E-04 Eh
 * total energy  :   -18.7006185 Eh     change       -0.7982036E-05 Eh
 * total energy  :   -18.7006240 Eh     change       -0.5471893E-05 Eh
 * total energy  :   -18.7006272 Eh     change       -0.3224078E-05 Eh
   *** GEOMETRY OPTIMIZATION CONVERGED AFTER 52 ITERATIONS ***

 final structure:
================
11
 xtb: 6.7.1 (edcfbbe)
C           -3.86736644641515       -0.67768804705712       -0.67995127508264
C           -2.51094241429632       -0.01554989813913       -0.89685515065193
N           -1.56366152758253       -0.42977141322616       -0.12268193386812
O           -2.43465256734677        0.87548325844895       -1.81395401980865
H           -4.60923071179514        0.09188396051070       -0.47716485682751
H           -4.15312012455937       -1.20271539822904       -1.58916713326870
H           -3.79943015793909       -1.37060478848584        0.15106421130147
H           -0.68761091314438        0.05859963633686       -0.32875640909944
O           -0.11090673112941        2.07407882959505       -2.20798029190171
H           -0.97866176400616        1.61173571256702       -2.03484648695461
H           -0.27358995498220        2.60863760448015       -2.99236158997619

          :  Hamiltonian                  GFN2-xTB          :
         :: gradient norm              0.000845492137 Eh/a0 ::
         :: HOMO-LUMO gap              5.148177702692 eV    ::
         :: SCC energy               -18.868614746533 Eh    ::
         :: -> dispersion             -0.005135484016 Eh    ::
         :: -> Gsolv                  -0.115770902396 Eh    ::
         :: repulsion energy           0.167987502250 Eh    ::

    * Orbital Energies and Occupations

         #    Occupation            Energy/Eh            Energy/eV
      -------------------------------------------------------------
         1        2.0000           -0.6540305             -17.7971
       ...           ...                  ...                  ...
         4        2.0000           -0.5758410             -15.6694
         5        2.0000           -0.5388086             -14.6617
         6        2.0000           -0.5146904             -14.0054
         7        2.0000           -0.4930511             -13.4166
         8        2.0000           -0.4861151             -13.2279
         9        2.0000           -0.4819657             -13.1150
        10        2.0000           -0.4609606             -12.5434
        11        2.0000           -0.4399940             -11.9728
        12        2.0000           -0.4371893             -11.8965
        13        2.0000           -0.4185484             -11.3893
        14        2.0000           -0.3618428              -9.8462
        15        2.0000           -0.3484894              -9.4829
        16        2.0000           -0.3403542              -9.2615 (HOMO)
        17                         -0.1511621              -4.1133 (LUMO)
        18                          0.0962368               2.6187
        19                          0.1511411               4.1128
        20                          0.1779406               4.8420
        21                          0.2095336               5.7017
        22                          0.2338134               6.3624
        23                          0.2345983               6.3837
        24                          0.2892977               7.8722
        25                          0.3874911              10.5442
        26                          0.6195531              16.8589
      -------------------------------------------------------------
                  HL-Gap            0.1891921 Eh            5.1482 eV

     #   Z          covCN         q      C6AA      α(0)
     1   6 C        3.758    -0.123    22.917     6.825
     2   6 C        2.741     0.259    22.630     7.789
     3   7 N        1.779    -0.550    35.980     8.883
     4   8 O        0.857    -0.711    29.013     7.222
     5   1 H        0.925     0.031     2.568     2.506
     6   1 H        0.925     0.032     2.558     2.501
     7   1 H        0.925     0.041     2.437     2.441
     8   1 H        0.860     0.093     1.867     2.141
     9   8 O        1.605    -0.713    28.070     7.150
    10   1 H        0.800     0.296     0.733     1.345
    11   1 H        0.805     0.345     0.599     1.216

Wiberg/Mayer (AO) data.
largest (>0.10) Wiberg bond orders for each atom

     #   Z sym  total        # sym  WBO       # sym  WBO       # sym  WBO
 ---------------------------------------------------------------------------
     1   6 C    3.997 --     7 H    0.990     5 H    0.980     6 H    0.979
                             2 C    0.974
     2   6 C    3.953 --     3 N    1.619     4 O    1.350     1 C    0.974
     3   7 N    2.842 --     2 C    1.619     8 H    0.962     4 O    0.220
     4   8 O    1.753 --     2 C    1.350     3 N    0.220
     5   1 H    0.999 --     1 C    0.980
     6   1 H    0.999 --     1 C    0.979
     7   1 H    0.998 --     1 C    0.990
     8   1 H    0.991 --     3 N    0.962
     9   8 O    1.745 --    11 H    0.880    10 H    0.817
    10   1 H    0.912 --     9 O    0.817
    11   1 H    0.881 --     9 O    0.880
 ---------------------------------------------------------------------------

molecular dipole:
                 x           y           z       tot (Debye)
 q only:        3.053      -0.933       1.998
   full:        2.855      -0.770       1.725       8.702

 projected vibrational frequencies (cm⁻¹)
eigval :       -0.00    -0.00     0.00     0.00     0.00     0.00
eigval :      -12.89    54.39    65.47    78.25   229.89   426.01
eigval :      511.28   543.06   583.61   799.49   837.42   903.48
eigval :     1002.13  1011.60  1226.86  1338.68  1380.72  1465.25
eigval :     1471.47  1537.37  1634.43  2815.75  3006.48  3016.03
eigval :     3058.44  3279.20  3601.42

   temp. (K)  partition function   enthalpy   heat capacity  entropy
                                   cal/mol     cal/K/mol   cal/K/mol   J/K/mol
 298.15  VIB  0.195E+04             3152.110     15.956     22.143
         ROT  0.125E+06              888.752      2.981     26.297
         INT  0.243E+09             4040.863     18.937     48.440
         TR   0.642E+27             1481.254      4.968     38.885
         TOT                        5522.1166    23.9049    87.3252   365.3688

       T/K    H(0)-H(T)+PV         H(T)/Eh          T*S/Eh         G(T)/Eh
   ------------------------------------------------------------------------
    298.15    0.880005E-02    0.905660E-01    0.414910E-01    0.490749E-01
   ------------------------------------------------------------------------

         :::::::::::::::::::::::::::::::::::::::::::::::::::::
         ::                  THERMODYNAMIC                  ::
         :::::::::::::::::::::::::::::::::::::::::::::::::::::
         :: total free energy         -18.651552317038 Eh   ::
         ::.................................................::
         :: total energy              -18.700627244886 Eh   ::
         :: zero point energy           0.081765910685 Eh   ::
         :: G(RRHO) w/o ZPVE           -0.032690982838 Eh   ::
         :: G(RRHO) contrib.            0.049074927848 Eh   ::
         :::::::::::::::::::::::::::::::::::::::::::::::::::::

           -------------------------------------------------
          | TOTAL ENERGY              -18.700627244886 Eh   |
          | TOTAL ENTHALPY            -18.610061281260 Eh   |
          | TOTAL FREE ENERGY         -18.651552317038 Eh   |
          | GRADIENT NORM               0.000845533062 Eh/α |
          | HOMO-LUMO GAP               5.148177941126 eV   |
           -------------------------------------------------

 * finished run on 2025/10/18 at 04:34:07.694
normal termination of xtb
