   * xtb version 6.7.1 (edcfbbe) compiled by 'albert@albert-system' on 2024-07-22

   ID    Z sym.   atoms
    1    6 C      1, 2
    2    7 N      3
    3    8 O      4
    4    1 H      5-8

          program call               : xtb tb_lite_results_shiftn0p2_gp280_b0_rot270_solute.xyz --ohess --chrg -1
          :  Hamiltonian                  GFN2-xTB          :
 * total energy  :   -13.4934743 Eh     change       -0.2103562E-09 Eh
 * total energy  :   -13.4961751 Eh     change       -0.2700713E-02 Eh
 * total energy  :   -13.4965575 Eh     change       -0.3824745E-03 Eh
 * total energy  :   -13.4966061 Eh     change       -0.4855015E-04 Eh
 * total energy  :   -13.4966010 Eh     change        0.5062874E-05 Eh
 * total energy  :   -13.4966173 Eh     change       -0.1631562E-04 Eh
 * total energy  :   -13.4966176 Eh     change       -0.2420886E-06 Eh
   *** GEOMETRY OPTIMIZATION CONVERGED AFTER 7 ITERATIONS ***

 final structure:
================
8
 xtb: 6.7.1 (edcfbbe)
C           -3.81748554790567       -0.65608803005112       -0.67966871555036
C           -2.51217449486479        0.15777912528126       -0.86873461114854
N           -1.47078060513436       -0.45235989579773       -0.38289974234957
O           -2.59345726269967        1.26963386477245       -1.44529225982674
H           -4.53878067185815       -0.06676028042194       -0.11131466523093
H           -4.25420268473725       -0.88001027678845       -1.65426786628244
H           -3.60384208078415       -1.58316413316019       -0.15252698045820
H           -0.63052676792194        0.12044361626085       -0.53019318850839

          :  Hamiltonian                  GFN2-xTB          :
         :: gradient norm              0.000115706954 Eh/a0 ::
         :: HOMO-LUMO gap              5.152411767015 eV    ::
         :: SCC energy               -13.634524540745 Eh    ::
         :: -> dispersion             -0.003835415426 Eh    ::
         :: repulsion energy           0.137906962161 Eh    ::

    * Orbital Energies and Occupations

         #    Occupation            Energy/Eh            Energy/eV
      -------------------------------------------------------------
         1        2.0000           -0.4323162             -11.7639
         2        2.0000           -0.4073057             -11.0834
         3        2.0000           -0.3768827             -10.2555
         4        2.0000           -0.3227963              -8.7837
         5        2.0000           -0.3042482              -8.2790
         6        2.0000           -0.2988721              -8.1327
         7        2.0000           -0.2649118              -7.2086
         8        2.0000           -0.2488223              -6.7708
         9        2.0000           -0.2411472              -6.5620
        10        2.0000           -0.1552846              -4.2255
        11        2.0000           -0.1359135              -3.6984
        12        2.0000           -0.1310645              -3.5664 (HOMO)
        13                          0.0582831               1.5860 (LUMO)
        14                          0.2969672               8.0809
        15                          0.3489464               9.4953
        16                          0.3847432              10.4694
        17                          0.3960153              10.7761
        18                          0.4088588              11.1256
        19                          0.5855283              15.9330
        20                          0.8477209              23.0677
      -------------------------------------------------------------
                  HL-Gap            0.1893476 Eh            5.1524 eV

     #   Z          covCN         q      C6AA      α(0)
     1   6 C        3.756    -0.106    22.576     6.775
     2   6 C        2.738     0.270    22.435     7.755
     3   7 N        1.779    -0.546    35.857     8.868
     4   8 O        0.857    -0.650    27.372     7.014
     5   1 H        0.924    -0.011     3.250     2.819
     6   1 H        0.924    -0.011     3.253     2.820
     7   1 H        0.925    -0.001     3.079     2.744
     8   1 H        0.859     0.054     2.283     2.367

Wiberg/Mayer (AO) data.
largest (>0.10) Wiberg bond orders for each atom

     #   Z sym  total        # sym  WBO       # sym  WBO       # sym  WBO
 ---------------------------------------------------------------------------
     1   6 C    3.979 --     7 H    0.992     5 H    0.985     6 H    0.985
                             2 C    0.933
     2   6 C    3.959 --     3 N    1.558     4 O    1.463     1 C    0.933
     3   7 N    2.808 --     2 C    1.558     8 H    0.970     4 O    0.247
     4   8 O    1.777 --     2 C    1.463     3 N    0.247
     5   1 H    1.000 --     1 C    0.985
     6   1 H    1.000 --     1 C    0.985
     7   1 H    1.000 --     1 C    0.992
     8   1 H    0.997 --     3 N    0.970
 ---------------------------------------------------------------------------

molecular dipole:
                 x           y           z       tot (Debye)
 q only:        4.305      -0.845       1.844
   full:        4.174      -0.728       1.761      11.664

 projected vibrational frequencies (cm⁻¹)
eigval :       -0.00    -0.00     0.00     0.00     0.00     0.00
eigval :       80.97   405.22   548.10   549.87   796.90   852.30
eigval :      976.14   985.99  1236.11  1334.60  1361.59  1494.62
eigval :     1498.45  1717.02  2967.34  2979.10  3014.44  3216.59

   temp. (K)  partition function   enthalpy   heat capacity  entropy
                                   cal/mol     cal/K/mol   cal/K/mol   J/K/mol
 298.15  VIB   4.44                 1082.301      8.225      6.491
         ROT  0.356E+05              888.752      2.981     23.805
         INT  0.158E+06             1971.053     11.206     30.296
         TR   0.428E+27             1481.254      4.968     38.080
         TOT                        3452.3070    16.1739    68.3760   286.0853

       T/K    H(0)-H(T)+PV         H(T)/Eh          T*S/Eh         G(T)/Eh
   ------------------------------------------------------------------------
    298.15    0.550160E-02    0.647689E-01    0.324877E-01    0.322813E-01
   ------------------------------------------------------------------------

         :::::::::::::::::::::::::::::::::::::::::::::::::::::
         ::                  THERMODYNAMIC                  ::
         :::::::::::::::::::::::::::::::::::::::::::::::::::::
         :: total free energy         -13.464336326104 Eh   ::
         ::.................................................::
         :: total energy              -13.496617578584 Eh   ::
         :: zero point energy           0.059267308408 Eh   ::
         :: G(RRHO) w/o ZPVE           -0.026986055928 Eh   ::
         :: G(RRHO) contrib.            0.032281252480 Eh   ::
         :::::::::::::::::::::::::::::::::::::::::::::::::::::

           -------------------------------------------------
          | TOTAL ENERGY              -13.496617578584 Eh   |
          | TOTAL ENTHALPY            -13.431848668845 Eh   |
          | TOTAL FREE ENERGY         -13.464336326104 Eh   |
          | GRADIENT NORM               0.000115683478 Eh/α |
          | HOMO-LUMO GAP               5.152411754760 eV   |
           -------------------------------------------------

 * finished run on 2025/10/18 at 04:34:08.049
normal termination of xtb
