   * xtb version 6.7.1 (edcfbbe) compiled by 'albert@albert-system' on 2024-07-22

   ID    Z sym.   atoms
    1    6 C      1
    2    1 H      2, 4, 5
    3    8 O      3, 6

          program call               : xtb xyz.xyz --charge -1 --ohess
          :  Hamiltonian                  GFN2-xTB          :
 * total energy  :   -11.8741990 Eh     change       -0.1799805E-10 Eh
 * total energy  :   -11.8760855 Eh     change       -0.1886518E-02 Eh
 * total energy  :   -11.8766505 Eh     change       -0.5650476E-03 Eh
 * total energy  :   -11.8766919 Eh     change       -0.4140451E-04 Eh
 * total energy  :   -11.8767023 Eh     change       -0.1036865E-04 Eh
 * total energy  :   -11.8767025 Eh     change       -0.2519868E-06 Eh
   *** GEOMETRY OPTIMIZATION CONVERGED AFTER 6 ITERATIONS ***

 final structure:
================
6
 xtb: 6.7.1 (edcfbbe)
C           -7.13940084569600       -4.41981148957707        1.58970668010687
H           -7.87473549582504       -3.59389051348080        1.54347264495294
O           -7.62197866001485       -5.58575943960763        1.05087934698863
H           -6.22185160998370       -4.06499733843747        1.08254751765637
H           -6.90070930797790       -4.61870485838591        2.64894470935011
O           -7.94281308050251       -5.35254536051111       -0.33800289905492

          :  Hamiltonian                  GFN2-xTB          :
         :: gradient norm              0.000138931798 Eh/a0 ::
         :: HOMO-LUMO gap              6.567791864735 eV    ::
         :: SCC energy               -11.932218020342 Eh    ::
         :: -> dispersion             -0.002054494981 Eh    ::
         :: repulsion energy           0.055515473038 Eh    ::

    * Orbital Energies and Occupations

         #    Occupation            Energy/Eh            Energy/eV
      -------------------------------------------------------------
         1        2.0000           -0.4566176             -12.4252
         2        2.0000           -0.4101534             -11.1608
         3        2.0000           -0.3525488              -9.5933
         4        2.0000           -0.3271811              -8.9031
         5        2.0000           -0.3193851              -8.6909
         6        2.0000           -0.3027375              -8.2379
         7        2.0000           -0.2274538              -6.1893
         8        2.0000           -0.2076771              -5.6512
         9        2.0000           -0.0932621              -2.5378
        10        2.0000           -0.0784980              -2.1360 (HOMO)
        11                          0.1628639               4.4318 (LUMO)
        12                          0.3076141               8.3706
        13                          0.3489359               9.4950
        14                          0.3641322               9.9085
        15                          0.4046207              11.0103
      -------------------------------------------------------------
                  HL-Gap            0.2413619 Eh            6.5678 eV

     #   Z          covCN         q      C6AA      α(0)
     1   6 C        3.624     0.120    19.032     6.287
     2   1 H        0.922    -0.023     3.489     2.921
     3   8 O        1.766    -0.338    19.659     5.987
     4   1 H        0.922    -0.023     3.489     2.921
     5   1 H        0.923    -0.041     3.870     3.077
     6   8 O        0.918    -0.695    28.527     7.163

Wiberg/Mayer (AO) data.
largest (>0.10) Wiberg bond orders for each atom

     #   Z sym  total        # sym  WBO       # sym  WBO       # sym  WBO
 ---------------------------------------------------------------------------
     1   6 C    3.987 --     3 O    1.059     5 H    0.971     2 H    0.970
                             4 H    0.970
     2   1 H    0.999 --     1 C    0.970
     3   8 O    2.012 --     1 C    1.059     6 O    0.900
     4   1 H    0.999 --     1 C    0.970
     5   1 H    0.998 --     1 C    0.971
     6   8 O    0.952 --     3 O    0.900
 ---------------------------------------------------------------------------

molecular dipole:
                 x           y           z       tot (Debye)
 q only:       14.829      10.286      -0.186
   full:       14.965      10.486       0.100      46.447

 projected vibrational frequencies (cm⁻¹)
eigval :       -0.00    -0.00     0.00     0.00     0.00     0.00
eigval :      180.00   381.56   945.02  1073.69  1143.91  1197.77
eigval :     1396.45  1464.22  1524.59  2727.53  2783.96  2821.15

   temp. (K)  partition function   enthalpy   heat capacity  entropy
                                   cal/mol     cal/K/mol   cal/K/mol   J/K/mol
 298.15  VIB   2.10                  658.431      4.829      3.684
         ROT  0.120E+05              888.752      2.981     21.645
         INT  0.252E+05             1547.183      7.810     25.329
         TR   0.312E+27             1481.254      4.968     37.453
         TOT                        3028.4372    12.7780    62.7812   262.6764

       T/K    H(0)-H(T)+PV         H(T)/Eh          T*S/Eh         G(T)/Eh
   ------------------------------------------------------------------------
    298.15    0.482612E-02    0.450126E-01    0.298294E-01    0.151833E-01
   ------------------------------------------------------------------------

         :::::::::::::::::::::::::::::::::::::::::::::::::::::
         ::                  THERMODYNAMIC                  ::
         :::::::::::::::::::::::::::::::::::::::::::::::::::::
         :: total free energy         -11.861519265881 Eh   ::
         ::.................................................::
         :: total energy              -11.876702547304 Eh   ::
         :: zero point energy           0.040186518742 Eh   ::
         :: G(RRHO) w/o ZPVE           -0.025003237319 Eh   ::
         :: G(RRHO) contrib.            0.015183281423 Eh   ::
         :::::::::::::::::::::::::::::::::::::::::::::::::::::

           -------------------------------------------------
          | TOTAL ENERGY              -11.876702547304 Eh   |
          | TOTAL ENTHALPY            -11.831689906643 Eh   |
          | TOTAL FREE ENERGY         -11.861519265881 Eh   |
          | GRADIENT NORM               0.000138873946 Eh/α |
          | HOMO-LUMO GAP               6.567792446039 eV   |
           -------------------------------------------------

 * finished run on 2025/10/18 at 02:37:32.069
