   * xtb version 6.7.1 (edcfbbe) compiled by 'albert@albert-system' on 2024-07-22

   ID    Z sym.   atoms
    1    6 C      1, 2, 5, 7, 9, 11
    2    8 O      3, 6, 14
    3    1 H      4, 8, 10, 12, 13, 15, 16

          program call               : xtb tb_lite_results_shiftn0p15_gp315_b0_rot90_complex.xyz --ohess --chrg -1 --alpb water
      * Solvation model:               ALPB
        Solvent                        water
        Solvent mass                       1.8000E+01 g/mol
          :  Hamiltonian                  GFN2-xTB          :
 * total energy  :   -28.9048245 Eh     change       -0.5748362E-09 Eh
 * total energy  :   -28.9079102 Eh     change       -0.3085716E-02 Eh
 * total energy  :   -28.9084517 Eh     change       -0.5415270E-03 Eh
 * total energy  :   -28.9087384 Eh     change       -0.2866602E-03 Eh
 * total energy  :   -28.9089103 Eh     change       -0.1719196E-03 Eh
 * total energy  :   -28.9089855 Eh     change       -0.7513155E-04 Eh
 * total energy  :   -28.9090649 Eh     change       -0.7944752E-04 Eh
 * total energy  :   -28.9091522 Eh     change       -0.8732545E-04 Eh
 * total energy  :   -28.9092269 Eh     change       -0.7466459E-04 Eh
 * total energy  :   -28.9093104 Eh     change       -0.8352560E-04 Eh
 * total energy  :   -28.9107311 Eh     change       -0.1594337E-04 Eh
 * total energy  :   -28.9107421 Eh     change       -0.1095153E-04 Eh
 * total energy  :   -28.9107496 Eh     change       -0.7482234E-05 Eh
 * total energy  :   -28.9107560 Eh     change       -0.6476310E-05 Eh
 * total energy  :   -28.9107636 Eh     change       -0.7558256E-05 Eh
 * total energy  :   -28.9107688 Eh     change       -0.5179343E-05 Eh
 * total energy  :   -28.9107726 Eh     change       -0.3804304E-05 Eh
 * total energy  :   -28.9107778 Eh     change       -0.5238625E-05 Eh
 * total energy  :   -28.9107824 Eh     change       -0.4604897E-05 Eh
   *** GEOMETRY OPTIMIZATION CONVERGED AFTER 47 ITERATIONS ***

 final structure:
================
16
 xtb: 6.7.1 (edcfbbe)
C           -6.31276222298008       -3.58032709353231        2.06290573123513
C           -6.14970069635993       -3.90853510762584        0.69748218310248
O           -9.23929063079389       -5.52024828300586        3.07039900309581
H           -7.43026667482096       -3.84637953057046        3.86831560950125
C           -7.08655639241755       -4.82124797948424        0.16438597866958
O           -5.19223931779041       -3.39203242841526       -0.01425561713008
C           -8.09951724971214       -5.35456967016099        0.93282988378294
H           -9.78303413441606       -6.12158382677519        2.54157845941918
C           -8.23199081600044       -5.00723849053027        2.26896476954515
H           -8.79587095957750       -6.05102365854920        0.48160122350546
C           -7.32660529735411       -4.11517484614152        2.82636396406753
H           -5.60854973602435       -2.88440935102649        2.50210889228433
H           -6.99032667074548       -5.09716902043046       -0.87795982473292
O           -5.19691141343583       -3.93521351465343       -2.57313606794306
H           -5.18721733793655       -3.77008681742424       -1.58046494892529
H           -4.98669872415444       -3.07966173988417       -2.96167227007229

          :  Hamiltonian                  GFN2-xTB          :
         :: gradient norm              0.000861946648 Eh/a0 ::
         :: HOMO-LUMO gap              3.275086540913 eV    ::
         :: SCC energy               -29.250529176368 Eh    ::
         :: -> dispersion             -0.012299238648 Eh    ::
         :: -> Gsolv                  -0.108423324739 Eh    ::
         :: repulsion energy           0.339746754494 Eh    ::

    * Orbital Energies and Occupations

         #    Occupation            Energy/Eh            Energy/eV
      -------------------------------------------------------------
         1        2.0000           -0.6889513             -18.7473
       ...           ...                  ...                  ...
        13        2.0000           -0.4911236             -13.3642
        14        2.0000           -0.4772747             -12.9873
        15        2.0000           -0.4602250             -12.5234
        16        2.0000           -0.4581658             -12.4673
        17        2.0000           -0.4549348             -12.3794
        18        2.0000           -0.4523707             -12.3096
        19        2.0000           -0.4187835             -11.3957
        20        2.0000           -0.4104389             -11.1686
        21        2.0000           -0.4070455             -11.0763
        22        2.0000           -0.3993661             -10.8673
        23        2.0000           -0.3776182             -10.2755
        24        2.0000           -0.3373619              -9.1801
        25        2.0000           -0.3159967              -8.5987 (HOMO)
        26                         -0.1956394              -5.3236 (LUMO)
        27                         -0.1656234              -4.5068
        28                         -0.0539074              -1.4669
        29                          0.0739090               2.0112
        30                          0.1245228               3.3884
        31                          0.1357417               3.6937
        32                          0.1750615               4.7637
        33                          0.1861639               5.0658
        34                          0.2107750               5.7355
        35                          0.2323076               6.3214
        36                          0.2455444               6.6816
       ...                                ...                  ...
        43                          0.6994973              19.0343
      -------------------------------------------------------------
                  HL-Gap            0.1203573 Eh            3.2751 eV

     #   Z          covCN         q      C6AA      α(0)
     1   6 C        2.921    -0.093    30.328     9.031
     2   6 C        2.834     0.153    24.674     8.140
     3   8 O        1.657    -0.491    22.699     6.432
     4   1 H        0.926     0.019     2.746     2.591
     5   6 C        2.920    -0.096    30.417     9.044
     6   8 O        0.858    -0.721    29.287     7.256
     7   6 C        2.915    -0.084    30.096     8.996
     8   1 H        0.805     0.356     0.574     1.190
     9   6 C        2.845     0.100    25.784     8.322
    10   1 H        0.925     0.015     2.806     2.620
    11   6 C        2.915    -0.072    29.787     8.950
    12   1 H        0.925    -0.008     3.198     2.797
    13   1 H        0.925     0.003     3.011     2.714
    14   8 O        1.603    -0.719    28.222     7.170
    15   1 H        0.799     0.302     0.717     1.330
    16   1 H        0.805     0.335     0.625     1.241

Wiberg/Mayer (AO) data.
largest (>0.10) Wiberg bond orders for each atom

     #   Z sym  total        # sym  WBO       # sym  WBO       # sym  WBO
 ---------------------------------------------------------------------------
     1   6 C    3.981 --    11 C    1.478     2 C    1.277    12 H    0.972
     2   6 C    3.967 --     6 O    1.294     5 C    1.281     1 C    1.277
     3   8 O    2.005 --     9 C    1.020     8 H    0.855
     4   1 H    0.999 --    11 C    0.969
     5   6 C    3.983 --     7 C    1.470     2 C    1.281    13 H    0.970
     6   8 O    1.705 --     2 C    1.294    15 H    0.104
     7   6 C    3.984 --     5 C    1.470     9 C    1.372    10 H    0.966
     8   1 H    0.873 --     3 O    0.855
     9   6 C    3.929 --     7 C    1.372    11 C    1.365     3 O    1.020
    10   1 H    1.000 --     7 C    0.966
    11   6 C    3.987 --     1 C    1.478     9 C    1.365     4 H    0.969
    12   1 H    1.000 --     1 C    0.972
    13   1 H    1.000 --     5 C    0.970
    14   8 O    1.741 --    16 H    0.887    15 H    0.800
    15   1 H    0.909 --    14 O    0.800     6 O    0.104
    16   1 H    0.888 --    14 O    0.887
 ---------------------------------------------------------------------------

molecular dipole:
                 x           y           z       tot (Debye)
 q only:       10.867       7.405      -0.579
   full:       10.795       7.457      -0.551      33.377

 projected vibrational frequencies (cm⁻¹)
eigval :       -0.00    -0.00     0.00     0.00     0.00     0.00
eigval :       29.55    69.76   137.80   146.71   222.47   298.15
eigval :      352.49   359.42   376.51   440.70   468.94   489.92
eigval :      557.75   627.01   654.12   758.27   783.58   841.59
eigval :      869.64   877.74   889.80   897.40   999.42  1098.52
eigval :     1127.93  1182.85  1205.91  1262.40  1318.75  1351.05
eigval :     1428.10  1492.44  1542.51  1553.38  1625.91  2657.07
eigval :     3022.78  3029.47  3052.26  3062.74  3478.15  3606.57

   temp. (K)  partition function   enthalpy   heat capacity  entropy
                                   cal/mol     cal/K/mol   cal/K/mol   J/K/mol
 298.15  VIB   726.                 4290.937     27.969     25.680
         ROT  0.581E+06              888.752      2.981     29.356
         INT  0.422E+09             5179.689     30.949     55.036
         TR   0.139E+28             1481.254      4.968     40.415
         TOT                        6660.9432    35.9176    95.4504   399.3646

       T/K    H(0)-H(T)+PV         H(T)/Eh          T*S/Eh         G(T)/Eh
   ------------------------------------------------------------------------
    298.15    0.106149E-01    0.125087E+00    0.453516E-01    0.797357E-01
   ------------------------------------------------------------------------

         :::::::::::::::::::::::::::::::::::::::::::::::::::::
         ::                  THERMODYNAMIC                  ::
         :::::::::::::::::::::::::::::::::::::::::::::::::::::
         :: total free energy         -28.831046762095 Eh   ::
         ::.................................................::
         :: total energy              -28.910782420600 Eh   ::
         :: zero point energy           0.114472348950 Eh   ::
         :: G(RRHO) w/o ZPVE           -0.034736690445 Eh   ::
         :: G(RRHO) contrib.            0.079735658505 Eh   ::
         :::::::::::::::::::::::::::::::::::::::::::::::::::::

           -------------------------------------------------
          | TOTAL ENERGY              -28.910782420600 Eh   |
          | TOTAL ENTHALPY            -28.785695183061 Eh   |
          | TOTAL FREE ENERGY         -28.831046762095 Eh   |
          | GRADIENT NORM               0.000861440858 Eh/α |
          | HOMO-LUMO GAP               3.275087519599 eV   |
           -------------------------------------------------

 * finished run on 2025/10/18 at 03:02:20.563
normal termination of xtb
