   * xtb version 6.7.1 (edcfbbe) compiled by 'albert@albert-system' on 2024-07-22

   ID    Z sym.   atoms
    1    6 C      1, 2, 5, 7, 9, 11
    2    8 O      3, 6, 14
    3    1 H      4, 8, 10, 12, 13, 15, 16

          program call               : xtb tb_lite_results_shiftn0p2_gp315_b0_rot90_complex.xyz --ohess --chrg -1 --alpb water
      * Solvation model:               ALPB
        Solvent                        water
        Solvent mass                       1.8000E+01 g/mol
          :  Hamiltonian                  GFN2-xTB          :
 * total energy  :   -28.9045138 Eh     change       -0.5862724E-09 Eh
 * total energy  :   -28.9080718 Eh     change       -0.3558013E-02 Eh
 * total energy  :   -28.9085482 Eh     change       -0.4764407E-03 Eh
 * total energy  :   -28.9087920 Eh     change       -0.2437837E-03 Eh
 * total energy  :   -28.9089244 Eh     change       -0.1323545E-03 Eh
 * total energy  :   -28.9089955 Eh     change       -0.7114760E-04 Eh
 * total energy  :   -28.9091052 Eh     change       -0.1096253E-03 Eh
 * total energy  :   -28.9091704 Eh     change       -0.6520992E-04 Eh
 * total energy  :   -28.9092757 Eh     change       -0.1052933E-03 Eh
 * total energy  :   -28.9093477 Eh     change       -0.7201106E-04 Eh
 * total energy  :   -28.9106965 Eh     change       -0.1568140E-04 Eh
 * total energy  :   -28.9106988 Eh     change       -0.2290136E-05 Eh
 * total energy  :   -28.9107156 Eh     change       -0.1680222E-04 Eh
 * total energy  :   -28.9107284 Eh     change       -0.1276097E-04 Eh
 * total energy  :   -28.9104752 Eh     change        0.2531897E-03 Eh
 * total energy  :   -28.9107615 Eh     change       -0.2863481E-03 Eh
 * total energy  :   -28.9107677 Eh     change       -0.6142769E-05 Eh
 * total energy  :   -28.9107738 Eh     change       -0.6094223E-05 Eh
 * total energy  :   -28.9107786 Eh     change       -0.4797936E-05 Eh
   *** GEOMETRY OPTIMIZATION CONVERGED AFTER 43 ITERATIONS ***

 final structure:
================
16
 xtb: 6.7.1 (edcfbbe)
C           -6.32818816653714       -3.56315018765931        2.07298566659259
C           -6.15608518876776       -3.89272520908215        0.70864860196126
O           -9.24351243031249       -5.52388770555042        3.07107811675185
H           -7.45242986072107       -3.83576917435249        3.87369653573515
C           -7.07998230273587       -4.81759110198038        0.17460790132525
O           -5.20228036758848       -3.36598032036167       -0.00067752020231
C           -8.09212968532128       -5.35806048171142        0.93961136799325
H           -9.77910006466770       -6.13308568530277        2.54302464296001
C           -8.23582293919741       -5.00679901507285        2.27329176936805
H           -8.77830993902034       -6.06367407269581        0.48700098723663
C           -7.34062035628009       -4.10521420916335        2.83267457827800
H           -5.63188013173019       -2.86013973031744        2.51356381891533
H           -6.97539572790141       -5.09835468218620       -0.86560552222791
O           -5.16467051494943       -3.96824463623623       -2.54730155159181
H           -5.16525047939710       -3.77709145594268       -1.55938785912787
H           -4.99188011939188       -3.11513369059446       -2.95776456456267

          :  Hamiltonian                  GFN2-xTB          :
         :: gradient norm              0.000414826262 Eh/a0 ::
         :: HOMO-LUMO gap              3.274945067372 eV    ::
         :: SCC energy               -29.250595563361 Eh    ::
         :: -> dispersion             -0.012302325530 Eh    ::
         :: -> Gsolv                  -0.108479285213 Eh    ::
         :: repulsion energy           0.339817013014 Eh    ::

    * Orbital Energies and Occupations

         #    Occupation            Energy/Eh            Energy/eV
      -------------------------------------------------------------
         1        2.0000           -0.6889703             -18.7478
       ...           ...                  ...                  ...
        13        2.0000           -0.4910567             -13.3623
        14        2.0000           -0.4772787             -12.9874
        15        2.0000           -0.4601690             -12.5218
        16        2.0000           -0.4581300             -12.4664
        17        2.0000           -0.4548494             -12.3771
        18        2.0000           -0.4523145             -12.3081
        19        2.0000           -0.4187551             -11.3949
        20        2.0000           -0.4105308             -11.1711
        21        2.0000           -0.4068977             -11.0722
        22        2.0000           -0.3993008             -10.8655
        23        2.0000           -0.3775550             -10.2738
        24        2.0000           -0.3372983              -9.1784
        25        2.0000           -0.3159215              -8.5967 (HOMO)
        26                         -0.1955695              -5.3217 (LUMO)
        27                         -0.1655680              -4.5053
        28                         -0.0538575              -1.4655
        29                          0.0740771               2.0157
        30                          0.1247933               3.3958
        31                          0.1358887               3.6977
        32                          0.1752422               4.7686
        33                          0.1862389               5.0678
        34                          0.2106249               5.7314
        35                          0.2324376               6.3249
        36                          0.2457210               6.6864
       ...                                ...                  ...
        43                          0.6997011              19.0398
      -------------------------------------------------------------
                  HL-Gap            0.1203520 Eh            3.2749 eV

     #   Z          covCN         q      C6AA      α(0)
     1   6 C        2.921    -0.093    30.325     9.031
     2   6 C        2.834     0.153    24.674     8.140
     3   8 O        1.657    -0.491    22.696     6.431
     4   1 H        0.926     0.019     2.747     2.592
     5   6 C        2.920    -0.096    30.421     9.045
     6   8 O        0.858    -0.721    29.293     7.256
     7   6 C        2.915    -0.084    30.099     8.996
     8   1 H        0.805     0.356     0.574     1.190
     9   6 C        2.845     0.100    25.784     8.322
    10   1 H        0.925     0.015     2.808     2.620
    11   6 C        2.915    -0.072    29.787     8.950
    12   1 H        0.925    -0.008     3.199     2.797
    13   1 H        0.925     0.003     3.008     2.712
    14   8 O        1.603    -0.719    28.219     7.169
    15   1 H        0.799     0.302     0.716     1.330
    16   1 H        0.805     0.335     0.624     1.241

Wiberg/Mayer (AO) data.
largest (>0.10) Wiberg bond orders for each atom

     #   Z sym  total        # sym  WBO       # sym  WBO       # sym  WBO
 ---------------------------------------------------------------------------
     1   6 C    3.981 --    11 C    1.479     2 C    1.276    12 H    0.972
     2   6 C    3.967 --     6 O    1.294     5 C    1.282     1 C    1.276
     3   8 O    2.005 --     9 C    1.020     8 H    0.855
     4   1 H    0.999 --    11 C    0.969
     5   6 C    3.983 --     7 C    1.469     2 C    1.282    13 H    0.970
     6   8 O    1.705 --     2 C    1.294    15 H    0.103
     7   6 C    3.984 --     5 C    1.469     9 C    1.372    10 H    0.966
     8   1 H    0.873 --     3 O    0.855
     9   6 C    3.929 --     7 C    1.372    11 C    1.364     3 O    1.020
    10   1 H    1.000 --     7 C    0.966
    11   6 C    3.987 --     1 C    1.479     9 C    1.364     4 H    0.969
    12   1 H    1.000 --     1 C    0.972
    13   1 H    1.000 --     5 C    0.970
    14   8 O    1.741 --    16 H    0.887    15 H    0.800
    15   1 H    0.909 --    14 O    0.800     6 O    0.103
    16   1 H    0.888 --    14 O    0.887
 ---------------------------------------------------------------------------

molecular dipole:
                 x           y           z       tot (Debye)
 q only:       10.853       7.383      -0.621
   full:       10.775       7.436      -0.596      33.311

 projected vibrational frequencies (cm⁻¹)
eigval :       -0.00    -0.00     0.00     0.00     0.00     0.00
eigval :       30.75    67.70   103.03   138.67   221.84   320.37
eigval :      352.65   359.26   376.73   440.38   468.24   490.14
eigval :      546.66   626.89   654.25   758.42   783.78   841.94
eigval :      867.97   877.97   887.01   897.47   999.51  1098.71
eigval :     1128.04  1183.10  1206.29  1262.50  1318.71  1351.03
eigval :     1428.17  1492.49  1539.88  1553.18  1626.05  2658.57
eigval :     3022.77  3029.13  3052.41  3062.18  3479.37  3613.25

   temp. (K)  partition function   enthalpy   heat capacity  entropy
                                   cal/mol     cal/K/mol   cal/K/mol   J/K/mol
 298.15  VIB   903.                 4329.693     27.956     26.253
         ROT  0.581E+06              888.752      2.981     29.356
         INT  0.524E+09             5218.445     30.937     55.609
         TR   0.139E+28             1481.254      4.968     40.415
         TOT                        6699.6992    35.9054    96.0235   401.7624

       T/K    H(0)-H(T)+PV         H(T)/Eh          T*S/Eh         G(T)/Eh
   ------------------------------------------------------------------------
    298.15    0.106767E-01    0.125080E+00    0.456239E-01    0.794566E-01
   ------------------------------------------------------------------------

         :::::::::::::::::::::::::::::::::::::::::::::::::::::
         ::                  THERMODYNAMIC                  ::
         :::::::::::::::::::::::::::::::::::::::::::::::::::::
         :: total free energy         -28.831321984393 Eh   ::
         ::.................................................::
         :: total energy              -28.910778549068 Eh   ::
         :: zero point energy           0.114403788003 Eh   ::
         :: G(RRHO) w/o ZPVE           -0.034947223328 Eh   ::
         :: G(RRHO) contrib.            0.079456564675 Eh   ::
         :::::::::::::::::::::::::::::::::::::::::::::::::::::

           -------------------------------------------------
          | TOTAL ENERGY              -28.910778549068 Eh   |
          | TOTAL ENTHALPY            -28.785698110748 Eh   |
          | TOTAL FREE ENERGY         -28.831321984393 Eh   |
          | GRADIENT NORM               0.000414928092 Eh/α |
          | HOMO-LUMO GAP               3.274944767004 eV   |
           -------------------------------------------------

 * finished run on 2025/10/18 at 03:02:26.884
normal termination of xtb
