   * xtb version 6.7.1 (edcfbbe) compiled by 'albert@albert-system' on 2024-07-22

   ID    Z sym.   atoms
    1    6 C      1, 2, 5, 7, 9, 11
    2    8 O      3, 6, 14
    3    1 H      4, 8, 10, 12, 13, 15, 16

          program call               : xtb tb_lite_results_shiftn0p15_gp325_b0_rot0_complex.xyz --ohess --chrg -1 --alpb water
      * Solvation model:               ALPB
        Solvent                        water
        Solvent mass                       1.8000E+01 g/mol
          :  Hamiltonian                  GFN2-xTB          :
 * total energy  :   -28.9063832 Eh     change       -0.1815543E-09 Eh
 * total energy  :   -28.9098842 Eh     change       -0.3501014E-02 Eh
 * total energy  :   -28.9102159 Eh     change       -0.3316545E-03 Eh
 * total energy  :   -28.9103537 Eh     change       -0.1378734E-03 Eh
 * total energy  :   -28.9105425 Eh     change       -0.1887762E-03 Eh
 * total energy  :   -28.9106207 Eh     change       -0.7816796E-04 Eh
 * total energy  :   -28.9106658 Eh     change       -0.4509320E-04 Eh
 * total energy  :   -28.9106941 Eh     change       -0.2835010E-04 Eh
 * total energy  :   -28.9107241 Eh     change       -0.2997461E-04 Eh
 * total energy  :   -28.9107414 Eh     change       -0.1735839E-04 Eh
 * total energy  :   -28.9107568 Eh     change       -0.1532806E-04 Eh
 * total energy  :   -28.9107609 Eh     change       -0.4086495E-05 Eh
 * total energy  :   -28.9107643 Eh     change       -0.3473429E-05 Eh
   *** GEOMETRY OPTIMIZATION CONVERGED AFTER 13 ITERATIONS ***

 final structure:
================
16
 xtb: 6.7.1 (edcfbbe)
C           -6.31357147858508       -3.51573277323148        2.07262700417266
C           -5.99869447268410       -3.93945286674449        0.76096938991861
O           -9.34170529597548       -5.39261770484552        2.87823091523305
H           -7.62913287853704       -3.65921550442457        3.75479880480985
C           -6.87245748724993       -4.89209700813036        0.19182333251339
O           -4.96531413283570       -3.47038545924998        0.12640516045716
C           -7.96782156496698       -5.37396030740569        0.87687237133302
H           -9.82523511664289       -6.03052033869595        2.33397532815883
C           -8.24886742401081       -4.93320447202300        2.16138120839055
H           -8.61135538218432       -6.10401051519688        0.40076539516642
C           -7.40885419184827       -3.99978816930487        2.75264557501792
H           -5.66049746861622       -2.78755494879303        2.53786068288980
H           -6.65957238836162       -5.24219773745238       -0.81009054103686
O           -4.68949057205350       -4.22391326545230       -2.36583872115373
H           -4.77707876239909       -3.97604220085680       -1.39562708602251
H           -4.56376986879785       -3.38491258272032       -2.82025971648900

          :  Hamiltonian                  GFN2-xTB          :
         :: gradient norm              0.000647484844 Eh/a0 ::
         :: HOMO-LUMO gap              3.273307248491 eV    ::
         :: SCC energy               -29.250658361524 Eh    ::
         :: -> dispersion             -0.012307762499 Eh    ::
         :: -> Gsolv                  -0.108479322262 Eh    ::
         :: repulsion energy           0.339894024581 Eh    ::

    * Orbital Energies and Occupations

         #    Occupation            Energy/Eh            Energy/eV
      -------------------------------------------------------------
         1        2.0000           -0.6889902             -18.7484
       ...           ...                  ...                  ...
        13        2.0000           -0.4909777             -13.3602
        14        2.0000           -0.4772892             -12.9877
        15        2.0000           -0.4602290             -12.5235
        16        2.0000           -0.4581217             -12.4661
        17        2.0000           -0.4549205             -12.3790
        18        2.0000           -0.4522567             -12.3065
        19        2.0000           -0.4187147             -11.3938
        20        2.0000           -0.4107751             -11.1778
        21        2.0000           -0.4067703             -11.0688
        22        2.0000           -0.3992790             -10.8649
        23        2.0000           -0.3775793             -10.2745
        24        2.0000           -0.3372068              -9.1759
        25        2.0000           -0.3158823              -8.5956 (HOMO)
        26                         -0.1955905              -5.3223 (LUMO)
        27                         -0.1655603              -4.5051
        28                         -0.0538645              -1.4657
        29                          0.0743252               2.0225
        30                          0.1250802               3.4036
        31                          0.1356734               3.6919
        32                          0.1750451               4.7632
        33                          0.1861873               5.0664
        34                          0.2107314               5.7343
        35                          0.2322822               6.3207
        36                          0.2457636               6.6876
       ...                                ...                  ...
        43                          0.6995182              19.0349
      -------------------------------------------------------------
                  HL-Gap            0.1202918 Eh            3.2733 eV

     #   Z          covCN         q      C6AA      α(0)
     1   6 C        2.921    -0.093    30.327     9.031
     2   6 C        2.834     0.153    24.675     8.140
     3   8 O        1.657    -0.491    22.701     6.432
     4   1 H        0.926     0.019     2.750     2.593
     5   6 C        2.920    -0.096    30.422     9.045
     6   8 O        0.858    -0.722    29.308     7.258
     7   6 C        2.915    -0.084    30.099     8.996
     8   1 H        0.805     0.356     0.573     1.189
     9   6 C        2.845     0.100    25.786     8.322
    10   1 H        0.925     0.015     2.808     2.620
    11   6 C        2.915    -0.072    29.788     8.950
    12   1 H        0.925    -0.008     3.202     2.798
    13   1 H        0.925     0.003     3.004     2.710
    14   8 O        1.603    -0.718    28.203     7.167
    15   1 H        0.799     0.302     0.716     1.330
    16   1 H        0.805     0.335     0.624     1.241

Wiberg/Mayer (AO) data.
largest (>0.10) Wiberg bond orders for each atom

     #   Z sym  total        # sym  WBO       # sym  WBO       # sym  WBO
 ---------------------------------------------------------------------------
     1   6 C    3.981 --    11 C    1.479     2 C    1.277    12 H    0.972
     2   6 C    3.967 --     6 O    1.294     5 C    1.281     1 C    1.277
     3   8 O    2.005 --     9 C    1.020     8 H    0.855
     4   1 H    0.999 --    11 C    0.969
     5   6 C    3.983 --     7 C    1.470     2 C    1.281    13 H    0.970
     6   8 O    1.704 --     2 C    1.294    15 H    0.102
     7   6 C    3.984 --     5 C    1.470     9 C    1.372    10 H    0.966
     8   1 H    0.873 --     3 O    0.855
     9   6 C    3.929 --     7 C    1.372    11 C    1.365     3 O    1.020
    10   1 H    1.000 --     7 C    0.966
    11   6 C    3.987 --     1 C    1.479     9 C    1.365     4 H    0.969
    12   1 H    1.000 --     1 C    0.972
    13   1 H    1.000 --     5 C    0.970
    14   8 O    1.741 --    16 H    0.887    15 H    0.801
    15   1 H    0.909 --    14 O    0.801     6 O    0.102
    16   1 H    0.888 --    14 O    0.887
 ---------------------------------------------------------------------------

molecular dipole:
                 x           y           z       tot (Debye)
 q only:       10.432       7.531      -0.824
   full:       10.339       7.590      -0.811      32.664

 projected vibrational frequencies (cm⁻¹)
eigval :       -0.00    -0.00    -0.00     0.00     0.00     0.00
eigval :       36.08    69.27   140.59   146.46   221.51   334.43
eigval :      352.99   360.64   377.84   441.28   469.16   490.85
eigval :      550.56   627.30   654.27   759.01   784.37   842.28
eigval :      869.80   878.89   892.77   898.18   999.70  1103.58
eigval :     1130.12  1183.93  1206.46  1262.75  1320.17  1350.99
eigval :     1428.48  1492.46  1539.18  1553.35  1626.10  2675.68
eigval :     3022.20  3028.97  3052.81  3062.26  3479.33  3613.75

   temp. (K)  partition function   enthalpy   heat capacity  entropy
                                   cal/mol     cal/K/mol   cal/K/mol   J/K/mol
 298.15  VIB   571.                 4251.593     27.983     25.409
         ROT  0.581E+06              888.752      2.981     29.355
         INT  0.332E+09             5140.346     30.964     54.764
         TR   0.139E+28             1481.254      4.968     40.415
         TOT                        6621.5996    35.9323    95.1792   398.2296

       T/K    H(0)-H(T)+PV         H(T)/Eh          T*S/Eh         G(T)/Eh
   ------------------------------------------------------------------------
    298.15    0.105522E-01    0.125214E+00    0.452227E-01    0.799915E-01
   ------------------------------------------------------------------------

         :::::::::::::::::::::::::::::::::::::::::::::::::::::
         ::                  THERMODYNAMIC                  ::
         :::::::::::::::::::::::::::::::::::::::::::::::::::::
         :: total free energy         -28.830772794157 Eh   ::
         ::.................................................::
         :: total energy              -28.910764338185 Eh   ::
         :: zero point energy           0.114662048285 Eh   ::
         :: G(RRHO) w/o ZPVE           -0.034670504258 Eh   ::
         :: G(RRHO) contrib.            0.079991544028 Eh   ::
         :::::::::::::::::::::::::::::::::::::::::::::::::::::

           -------------------------------------------------
          | TOTAL ENERGY              -28.910764338185 Eh   |
          | TOTAL ENTHALPY            -28.785550099203 Eh   |
          | TOTAL FREE ENERGY         -28.830772794157 Eh   |
          | GRADIENT NORM               0.000648008128 Eh/α |
          | HOMO-LUMO GAP               3.273307353784 eV   |
           -------------------------------------------------

 * finished run on 2025/10/18 at 03:02:30.912
normal termination of xtb
