   * xtb version 6.7.1 (edcfbbe) compiled by 'albert@albert-system' on 2024-07-22

   ID    Z sym.   atoms
    1    6 C      1, 2, 5, 7, 9, 11
    2    8 O      3, 6
    3    1 H      4, 8, 10, 12, 13

          program call               : xtb tb_lite_results_shiftn0p15_gp325_b0_rot90_solute.xyz --ohess --chrg -1
          :  Hamiltonian                  GFN2-xTB          :
 * total energy  :   -23.7152692 Eh     change       -0.7763283E-09 Eh
 * total energy  :   -23.7182498 Eh     change       -0.2980638E-02 Eh
 * total energy  :   -23.7184593 Eh     change       -0.2094487E-03 Eh
 * total energy  :   -23.7184838 Eh     change       -0.2446825E-04 Eh
 * total energy  :   -23.7184881 Eh     change       -0.4383175E-05 Eh
   *** GEOMETRY OPTIMIZATION CONVERGED AFTER 5 ITERATIONS ***

 final structure:
================
13
 xtb: 6.7.1 (edcfbbe)
C           -6.31986621461132       -3.53829849114262        2.05631112281937
C           -5.98840515452308       -4.01655125557036        0.74752589911760
O           -9.40932186374508       -5.33840091053717        2.93350893220620
H           -7.64147781865311       -3.58347518099522        3.74397272981407
C           -6.90875264082737       -4.98214613817234        0.23028094388628
O           -4.97595559468623       -3.62130209547394        0.10673975897253
C           -8.01098972921973       -5.40746183362288        0.93589203998935
H           -9.86046260727421       -5.98092908256220        2.37624176020184
C           -8.28211391620452       -4.90916427382775        2.20138344716625
H           -8.68540819667971       -6.14689108981844        0.50007468715541
C           -7.42339299817627       -3.96911281768453        2.75376401276797
H           -5.65983196989938       -2.80295149493067        2.50344465323040
H           -6.71760077012012       -5.38631263134588       -0.75799288639867

          :  Hamiltonian                  GFN2-xTB          :
         :: gradient norm              0.000930292811 Eh/a0 ::
         :: HOMO-LUMO gap              2.992661618127 eV    ::
         :: SCC energy               -24.028646274504 Eh    ::
         :: -> dispersion             -0.010772842783 Eh    ::
         :: repulsion energy           0.310158126776 Eh    ::

    * Orbital Energies and Occupations

         #    Occupation            Energy/Eh            Energy/eV
      -------------------------------------------------------------
         1        2.0000           -0.5466639             -14.8755
       ...           ...                  ...                  ...
         9        2.0000           -0.3622371              -9.8570
        10        2.0000           -0.3467775              -9.4363
        11        2.0000           -0.3276359              -8.9154
        12        2.0000           -0.3059253              -8.3247
        13        2.0000           -0.3020952              -8.2204
        14        2.0000           -0.2960740              -8.0566
        15        2.0000           -0.2885751              -7.8525
        16        2.0000           -0.2552082              -6.9446
        17        2.0000           -0.2509881              -6.8297
        18        2.0000           -0.2423607              -6.5950
        19        2.0000           -0.2197731              -5.9803
        20        2.0000           -0.1558535              -4.2410
        21        2.0000           -0.1462048              -3.9784 (HOMO)
        22                         -0.0362265              -0.9858 (LUMO)
        23                         -0.0016098              -0.0438
        24                          0.1071246               2.9150
        25                          0.2058137               5.6005
        26                          0.2652631               7.2182
        27                          0.3085488               8.3960
        28                          0.3341252               9.0920
        29                          0.3458277               9.4105
        30                          0.3809492              10.3662
        31                          0.4275362              11.6339
        32                          0.5628644              15.3163
       ...                                ...                  ...
        37                          0.8706595              23.6919
      -------------------------------------------------------------
                  HL-Gap            0.1099783 Eh            2.9927 eV

     #   Z          covCN         q      C6AA      α(0)
     1   6 C        2.920    -0.100    30.530     9.061
     2   6 C        2.828     0.176    24.209     8.063
     3   8 O        1.656    -0.467    22.193     6.360
     4   1 H        0.925    -0.014     3.309     2.845
     5   6 C        2.918    -0.102    30.567     9.066
     6   8 O        0.857    -0.615    26.492     6.901
     7   6 C        2.911    -0.080    30.001     8.982
     8   1 H        0.805     0.259     0.857     1.454
     9   6 C        2.844     0.079    26.233     8.394
    10   1 H        0.924    -0.038     3.808     3.052
    11   6 C        2.911    -0.068    29.682     8.934
    12   1 H        0.925    -0.014     3.308     2.844
    13   1 H        0.925    -0.017     3.374     2.872

Wiberg/Mayer (AO) data.
largest (>0.10) Wiberg bond orders for each atom

     #   Z sym  total        # sym  WBO       # sym  WBO       # sym  WBO
 ---------------------------------------------------------------------------
     1   6 C    3.976 --    11 C    1.502     2 C    1.208    12 H    0.972
                             6 O    0.108
     2   6 C    3.973 --     6 O    1.460     5 C    1.212     1 C    1.208
     3   8 O    1.993 --     9 C    0.967     8 H    0.914
     4   1 H    1.000 --    11 C    0.969
     5   6 C    3.975 --     7 C    1.489     2 C    1.212    13 H    0.972
                             6 O    0.110
     6   8 O    1.775 --     2 C    1.460     5 C    0.110     1 C    0.108
     7   6 C    3.977 --     5 C    1.489     9 C    1.367    10 H    0.962
     8   1 H    0.933 --     3 O    0.914
     9   6 C    3.896 --     7 C    1.367    11 C    1.356     3 O    0.967
    10   1 H    0.999 --     7 C    0.962
    11   6 C    3.984 --     1 C    1.502     9 C    1.356     4 H    0.969
    12   1 H    1.000 --     1 C    0.972
    13   1 H    1.000 --     5 C    0.972
 ---------------------------------------------------------------------------

molecular dipole:
                 x           y           z       tot (Debye)
 q only:       11.900       7.655      -2.073
   full:       11.544       7.399      -2.060      35.244

 projected vibrational frequencies (cm⁻¹)
eigval :       -0.00    -0.00    -0.00    -0.00     0.00     0.00
eigval :      135.85   298.19   335.63   341.97   375.23   435.28
eigval :      443.59   471.17   617.92   645.09   748.51   768.97
eigval :      828.58   861.23   873.84   892.10   984.00  1099.23
eigval :     1149.29  1183.17  1214.68  1234.32  1320.90  1405.15
eigval :     1445.46  1540.91  1556.51  1638.24  2924.06  3005.07
eigval :     3018.17  3029.00  3551.34

   temp. (K)  partition function   enthalpy   heat capacity  entropy
                                   cal/mol     cal/K/mol   cal/K/mol   J/K/mol
 298.15  VIB   9.24                 2416.162     19.977     12.518
         ROT  0.268E+06              888.752      2.981     27.820
         INT  0.248E+07             3304.914     22.958     40.339
         TR   0.110E+28             1481.254      4.968     39.960
         TOT                        4786.1678    27.9262    80.2981   335.9674

       T/K    H(0)-H(T)+PV         H(T)/Eh          T*S/Eh         G(T)/Eh
   ------------------------------------------------------------------------
    298.15    0.762724E-02    0.996029E-01    0.381522E-01    0.614507E-01
   ------------------------------------------------------------------------

         :::::::::::::::::::::::::::::::::::::::::::::::::::::
         ::                  THERMODYNAMIC                  ::
         :::::::::::::::::::::::::::::::::::::::::::::::::::::
         :: total free energy         -23.657037475429 Eh   ::
         ::.................................................::
         :: total energy              -23.718488147749 Eh   ::
         :: zero point energy           0.091975659842 Eh   ::
         :: G(RRHO) w/o ZPVE           -0.030524987522 Eh   ::
         :: G(RRHO) contrib.            0.061450672320 Eh   ::
         :::::::::::::::::::::::::::::::::::::::::::::::::::::

           -------------------------------------------------
          | TOTAL ENERGY              -23.718488147749 Eh   |
          | TOTAL ENTHALPY            -23.618885243990 Eh   |
          | TOTAL FREE ENERGY         -23.657037475429 Eh   |
          | GRADIENT NORM               0.000930187265 Eh/α |
          | HOMO-LUMO GAP               2.992660751765 eV   |
           -------------------------------------------------

 * finished run on 2025/10/18 at 03:02:24.712
normal termination of xtb
