   * xtb version 6.7.1 (edcfbbe) compiled by 'albert@albert-system' on 2024-07-22

   ID    Z sym.   atoms
    1    6 C      1, 2, 5, 7, 9, 11
    2    8 O      3, 6, 14
    3    1 H      4, 8, 10, 12, 13, 15, 16

          program call               : xtb tb_lite_results_shiftn0p15_gp325_b0_rot90_complex.xyz --ohess --chrg -1 --alpb water
      * Solvation model:               ALPB
        Solvent                        water
        Solvent mass                       1.8000E+01 g/mol
          :  Hamiltonian                  GFN2-xTB          :
 * total energy  :   -28.9045646 Eh     change       -0.5162200E-09 Eh
 * total energy  :   -28.9080364 Eh     change       -0.3471755E-02 Eh
 * total energy  :   -28.9083417 Eh     change       -0.3052871E-03 Eh
 * total energy  :   -28.9084452 Eh     change       -0.1035517E-03 Eh
 * total energy  :   -28.9086147 Eh     change       -0.1694274E-03 Eh
 * total energy  :   -28.9086748 Eh     change       -0.6016078E-04 Eh
 * total energy  :   -28.9087986 Eh     change       -0.1238305E-03 Eh
 * total energy  :   -28.9088996 Eh     change       -0.1009311E-03 Eh
 * total energy  :   -28.9090432 Eh     change       -0.1436450E-03 Eh
 * total energy  :   -28.9091130 Eh     change       -0.6977280E-04 Eh
 * total energy  :   -28.9107698 Eh     change       -0.1479561E-04 Eh
 * total energy  :   -28.9107793 Eh     change       -0.9526707E-05 Eh
 * total energy  :   -28.9107837 Eh     change       -0.4356567E-05 Eh
 * total energy  :   -28.9107955 Eh     change       -0.1182981E-04 Eh
 * total energy  :   -28.9108139 Eh     change       -0.1840478E-04 Eh
 * total energy  :   -28.9108193 Eh     change       -0.5358470E-05 Eh
 * total energy  :   -28.9108374 Eh     change       -0.1818332E-04 Eh
 * total energy  :   -28.9108475 Eh     change       -0.1003328E-04 Eh
 * total energy  :   -28.9108498 Eh     change       -0.2318088E-05 Eh
   *** GEOMETRY OPTIMIZATION CONVERGED AFTER 52 ITERATIONS ***

 final structure:
================
16
 xtb: 6.7.1 (edcfbbe)
C           -6.37034152910344       -3.48912369926230        1.98888707462463
C           -6.08953258856707       -3.99058527531236        0.69691816059017
O           -9.31663899271583       -5.38138299962972        3.02574066330268
H           -7.62225891611752       -3.55250486277553        3.72331271784411
C           -6.95646988247608       -4.99980517795535        0.22345220555065
O           -5.09023810672856       -3.53988494931637       -0.00150371774379
C           -8.01425744282352       -5.46194745427531        0.97800564314300
H           -9.80428182577103       -6.06381806937082        2.54275098053825
C           -8.26247289683459       -4.94453764303282        2.24032116472651
H           -8.65416026645410       -6.23731330869160        0.57431164088530
C           -7.42782737398736       -3.95348769225496        2.73837498453304
H           -5.72122212095990       -2.71609611476026        2.38147673808585
H           -6.76979838030050       -5.40972005040309       -0.76101604755126
O           -4.78965947958942       -4.45421703883285       -2.43457978836877
H           -4.90274371648667       -4.14291809758034       -1.48484985024026
H           -4.46458275702403       -3.67952127506780       -2.90444276408779

          :  Hamiltonian                  GFN2-xTB          :
         :: gradient norm              0.000388010163 Eh/a0 ::
         :: HOMO-LUMO gap              3.273809608346 eV    ::
         :: SCC energy               -29.250772755779 Eh    ::
         :: -> dispersion             -0.012284719156 Eh    ::
         :: -> Gsolv                  -0.108527015533 Eh    ::
         :: repulsion energy           0.339922964683 Eh    ::

    * Orbital Energies and Occupations

         #    Occupation            Energy/Eh            Energy/eV
      -------------------------------------------------------------
         1        2.0000           -0.6889758             -18.7480
       ...           ...                  ...                  ...
        13        2.0000           -0.4912166             -13.3667
        14        2.0000           -0.4771814             -12.9848
        15        2.0000           -0.4601894             -12.5224
        16        2.0000           -0.4581077             -12.4657
        17        2.0000           -0.4549254             -12.3792
        18        2.0000           -0.4523496             -12.3091
        19        2.0000           -0.4187671             -11.3952
        20        2.0000           -0.4103013             -11.1649
        21        2.0000           -0.4072636             -11.0822
        22        2.0000           -0.3992992             -10.8655
        23        2.0000           -0.3775859             -10.2746
        24        2.0000           -0.3372638              -9.1774
        25        2.0000           -0.3158950              -8.5959 (HOMO)
        26                         -0.1955847              -5.3221 (LUMO)
        27                         -0.1655239              -4.5041
        28                         -0.0538263              -1.4647
        29                          0.0742692               2.0210
        30                          0.1248278               3.3967
        31                          0.1358234               3.6959
        32                          0.1749639               4.7610
        33                          0.1863195               5.0700
        34                          0.2107143               5.7338
        35                          0.2322054               6.3186
        36                          0.2456781               6.6852
       ...                                ...                  ...
        43                          0.6999952              19.0478
      -------------------------------------------------------------
                  HL-Gap            0.1203103 Eh            3.2738 eV

     #   Z          covCN         q      C6AA      α(0)
     1   6 C        2.921    -0.093    30.326     9.031
     2   6 C        2.834     0.153    24.674     8.140
     3   8 O        1.657    -0.491    22.698     6.431
     4   1 H        0.926     0.019     2.746     2.592
     5   6 C        2.920    -0.096    30.416     9.044
     6   8 O        0.858    -0.721    29.284     7.255
     7   6 C        2.915    -0.084    30.098     8.996
     8   1 H        0.805     0.357     0.573     1.189
     9   6 C        2.845     0.100    25.784     8.322
    10   1 H        0.925     0.015     2.808     2.620
    11   6 C        2.915    -0.072    29.788     8.950
    12   1 H        0.925    -0.008     3.197     2.796
    13   1 H        0.925     0.002     3.026     2.720
    14   8 O        1.603    -0.719    28.220     7.170
    15   1 H        0.799     0.302     0.717     1.331
    16   1 H        0.805     0.336     0.623     1.240

Wiberg/Mayer (AO) data.
largest (>0.10) Wiberg bond orders for each atom

     #   Z sym  total        # sym  WBO       # sym  WBO       # sym  WBO
 ---------------------------------------------------------------------------
     1   6 C    3.981 --    11 C    1.479     2 C    1.276    12 H    0.972
     2   6 C    3.967 --     6 O    1.294     5 C    1.282     1 C    1.276
     3   8 O    2.005 --     9 C    1.020     8 H    0.855
     4   1 H    0.999 --    11 C    0.969
     5   6 C    3.982 --     7 C    1.469     2 C    1.282    13 H    0.970
     6   8 O    1.705 --     2 C    1.294    15 H    0.103
     7   6 C    3.984 --     5 C    1.469     9 C    1.372    10 H    0.966
     8   1 H    0.873 --     3 O    0.855
     9   6 C    3.929 --     7 C    1.372    11 C    1.364     3 O    1.020
    10   1 H    1.000 --     7 C    0.966
    11   6 C    3.987 --     1 C    1.479     9 C    1.364     4 H    0.969
    12   1 H    1.000 --     1 C    0.972
    13   1 H    1.000 --     5 C    0.970
    14   8 O    1.741 --    16 H    0.887    15 H    0.801
    15   1 H    0.909 --    14 O    0.801     6 O    0.103
    16   1 H    0.887 --    14 O    0.887
 ---------------------------------------------------------------------------

molecular dipole:
                 x           y           z       tot (Debye)
 q only:       10.725       7.632      -0.651
   full:       10.659       7.682      -0.636      33.435

 projected vibrational frequencies (cm⁻¹)
eigval :       -0.00    -0.00    -0.00     0.00     0.00     0.00
eigval :       30.69    63.97   141.41   187.39   221.60   326.59
eigval :      352.73   359.68   377.25   440.13   468.13   489.90
eigval :      555.91   627.56   653.71   758.92   783.78   842.10
eigval :      863.64   877.31   881.31   897.32   999.59  1102.35
eigval :     1129.60  1182.98  1206.45  1262.19  1319.79  1351.83
eigval :     1428.39  1492.81  1539.47  1553.39  1626.32  2666.11
eigval :     3022.58  3029.76  3051.07  3062.45  3480.39  3610.70

   temp. (K)  partition function   enthalpy   heat capacity  entropy
                                   cal/mol     cal/K/mol   cal/K/mol   J/K/mol
 298.15  VIB   609.                 4231.079     27.846     25.112
         ROT  0.582E+06              888.752      2.981     29.359
         INT  0.354E+09             5119.831     30.827     54.471
         TR   0.139E+28             1481.254      4.968     40.415
         TOT                        6601.0854    35.7948    94.8860   397.0031

       T/K    H(0)-H(T)+PV         H(T)/Eh          T*S/Eh         G(T)/Eh
   ------------------------------------------------------------------------
    298.15    0.105195E-01    0.125155E+00    0.450834E-01    0.800718E-01
   ------------------------------------------------------------------------

         :::::::::::::::::::::::::::::::::::::::::::::::::::::
         ::                  THERMODYNAMIC                  ::
         :::::::::::::::::::::::::::::::::::::::::::::::::::::
         :: total free energy         -28.830777992976 Eh   ::
         ::.................................................::
         :: total energy              -28.910849791391 Eh   ::
         :: zero point energy           0.114635713481 Eh   ::
         :: G(RRHO) w/o ZPVE           -0.034563915066 Eh   ::
         :: G(RRHO) contrib.            0.080071798415 Eh   ::
         :::::::::::::::::::::::::::::::::::::::::::::::::::::

           -------------------------------------------------
          | TOTAL ENERGY              -28.910849791391 Eh   |
          | TOTAL ENTHALPY            -28.785694578772 Eh   |
          | TOTAL FREE ENERGY         -28.830777992976 Eh   |
          | GRADIENT NORM               0.000388339165 Eh/α |
          | HOMO-LUMO GAP               3.273809300374 eV   |
           -------------------------------------------------

 * finished run on 2025/10/18 at 03:02:23.887
normal termination of xtb
