   * xtb version 6.7.1 (edcfbbe) compiled by 'albert@albert-system' on 2024-07-22

   ID    Z sym.   atoms
    1    6 C      1, 2, 5, 7, 9, 11
    2    8 O      3, 6, 14
    3    1 H      4, 8, 10, 12, 13, 15, 16

          program call               : xtb tb_lite_results_shiftn0p2_gp325_b0_rot90_complex.xyz --ohess --chrg -1 --alpb water
      * Solvation model:               ALPB
        Solvent                        water
        Solvent mass                       1.8000E+01 g/mol
          :  Hamiltonian                  GFN2-xTB          :
 * total energy  :   -28.9042323 Eh     change       -0.5482512E-09 Eh
 * total energy  :   -28.9080900 Eh     change       -0.3857701E-02 Eh
 * total energy  :   -28.9083996 Eh     change       -0.3095942E-03 Eh
 * total energy  :   -28.9084771 Eh     change       -0.7745071E-04 Eh
 * total energy  :   -28.9086120 Eh     change       -0.1349555E-03 Eh
 * total energy  :   -28.9087233 Eh     change       -0.1112504E-03 Eh
 * total energy  :   -28.9089017 Eh     change       -0.1784060E-03 Eh
 * total energy  :   -28.9081761 Eh     change        0.7255936E-03 Eh
 * total energy  :   -28.9090768 Eh     change       -0.9007502E-03 Eh
 * total energy  :   -28.9091331 Eh     change       -0.5629691E-04 Eh
 * total energy  :   -28.9106778 Eh     change       -0.3340604E-04 Eh
 * total energy  :   -28.9106882 Eh     change       -0.1040207E-04 Eh
 * total energy  :   -28.9107183 Eh     change       -0.3011013E-04 Eh
 * total energy  :   -28.9107357 Eh     change       -0.1732481E-04 Eh
 * total energy  :   -28.9107157 Eh     change        0.1997788E-04 Eh
 * total energy  :   -28.9107611 Eh     change       -0.4542398E-04 Eh
 * total energy  :   -28.9107660 Eh     change       -0.4847039E-05 Eh
 * total energy  :   -28.9107719 Eh     change       -0.5908184E-05 Eh
 * total energy  :   -28.9107742 Eh     change       -0.2348728E-05 Eh
   *** GEOMETRY OPTIMIZATION CONVERGED AFTER 41 ITERATIONS ***

 final structure:
================
16
 xtb: 6.7.1 (edcfbbe)
C           -6.35245927917260       -3.50341953648262        2.01913417156025
C           -6.08604302440102       -3.96596581587876        0.70960183453912
O           -9.30226345950330       -5.40860391114254        3.02204500050674
H           -7.58823225677687       -3.61504700039241        3.76271700065357
C           -6.96628938449432       -4.95134948369832        0.21118709311118
O           -5.08932669442056       -3.50085291573597        0.01655415841703
C           -8.02077188355523       -5.42994458954390        0.95991496150717
H           -9.79871321634588       -6.07257476376372        2.52257760229447
C           -8.25303804353280       -4.95283405172074        2.24100988889019
H           -8.67019775536349       -6.18698329359141        0.53713014595646
C           -7.40645127866078       -3.98450223160662        2.76315787495699
H           -5.69396868946209       -2.74830076050087        2.43071239868526
H           -6.79063758972815       -5.33271250452268       -0.78652935274536
O           -4.74346184183972       -4.49071542171250       -2.38072921604250
H           -4.85908223930768       -4.15106673421440       -1.44067805381049
H           -4.66331698470070       -3.69422334873097       -2.91587709738585

          :  Hamiltonian                  GFN2-xTB          :
         :: gradient norm              0.000813595013 Eh/a0 ::
         :: HOMO-LUMO gap              3.274044247652 eV    ::
         :: SCC energy               -29.250571995831 Eh    ::
         :: -> dispersion             -0.012300674954 Eh    ::
         :: -> Gsolv                  -0.108464325782 Eh    ::
         :: repulsion energy           0.339797771635 Eh    ::

    * Orbital Energies and Occupations

         #    Occupation            Energy/Eh            Energy/eV
      -------------------------------------------------------------
         1        2.0000           -0.6890316             -18.7495
       ...           ...                  ...                  ...
        13        2.0000           -0.4911194             -13.3640
        14        2.0000           -0.4771727             -12.9845
        15        2.0000           -0.4602464             -12.5239
        16        2.0000           -0.4581640             -12.4673
        17        2.0000           -0.4550088             -12.3814
        18        2.0000           -0.4523862             -12.3101
        19        2.0000           -0.4187794             -11.3956
        20        2.0000           -0.4106616             -11.1747
        21        2.0000           -0.4067718             -11.0688
        22        2.0000           -0.3993462             -10.8668
        23        2.0000           -0.3776177             -10.2755
        24        2.0000           -0.3372981              -9.1783
        25        2.0000           -0.3159392              -8.5971 (HOMO)
        26                         -0.1956203              -5.3231 (LUMO)
        27                         -0.1655852              -4.5058
        28                         -0.0538899              -1.4664
        29                          0.0743156               2.0222
        30                          0.1248452               3.3972
        31                          0.1358245               3.6960
        32                          0.1746358               4.7521
        33                          0.1862564               5.0683
        34                          0.2106617               5.7324
        35                          0.2321295               6.3166
        36                          0.2456199               6.6837
       ...                                ...                  ...
        43                          0.6997777              19.0419
      -------------------------------------------------------------
                  HL-Gap            0.1203189 Eh            3.2740 eV

     #   Z          covCN         q      C6AA      α(0)
     1   6 C        2.921    -0.093    30.325     9.031
     2   6 C        2.834     0.153    24.674     8.140
     3   8 O        1.657    -0.491    22.699     6.432
     4   1 H        0.926     0.019     2.749     2.593
     5   6 C        2.920    -0.096    30.424     9.045
     6   8 O        0.858    -0.721    29.292     7.256
     7   6 C        2.915    -0.084    30.100     8.997
     8   1 H        0.805     0.357     0.573     1.189
     9   6 C        2.845     0.100    25.784     8.322
    10   1 H        0.925     0.015     2.807     2.620
    11   6 C        2.915    -0.072    29.787     8.950
    12   1 H        0.925    -0.008     3.203     2.799
    13   1 H        0.925     0.003     3.009     2.713
    14   8 O        1.603    -0.719    28.218     7.169
    15   1 H        0.799     0.302     0.716     1.330
    16   1 H        0.805     0.335     0.624     1.241

Wiberg/Mayer (AO) data.
largest (>0.10) Wiberg bond orders for each atom

     #   Z sym  total        # sym  WBO       # sym  WBO       # sym  WBO
 ---------------------------------------------------------------------------
     1   6 C    3.981 --    11 C    1.479     2 C    1.276    12 H    0.972
     2   6 C    3.966 --     6 O    1.294     5 C    1.282     1 C    1.276
     3   8 O    2.005 --     9 C    1.020     8 H    0.855
     4   1 H    0.999 --    11 C    0.969
     5   6 C    3.982 --     7 C    1.469     2 C    1.282    13 H    0.970
     6   8 O    1.705 --     2 C    1.294    15 H    0.103
     7   6 C    3.984 --     5 C    1.469     9 C    1.372    10 H    0.966
     8   1 H    0.873 --     3 O    0.855
     9   6 C    3.929 --     7 C    1.372    11 C    1.364     3 O    1.020
    10   1 H    1.000 --     7 C    0.966
    11   6 C    3.987 --     1 C    1.479     9 C    1.364     4 H    0.969
    12   1 H    1.000 --     1 C    0.972
    13   1 H    1.000 --     5 C    0.970
    14   8 O    1.741 --    16 H    0.887    15 H    0.800
    15   1 H    0.909 --    14 O    0.800     6 O    0.103
    16   1 H    0.888 --    14 O    0.887
 ---------------------------------------------------------------------------

molecular dipole:
                 x           y           z       tot (Debye)
 q only:       10.549       7.629      -0.744
   full:       10.443       7.691      -0.741      33.018

 projected vibrational frequencies (cm⁻¹)
eigval :       -0.00    -0.00     0.00     0.00     0.00     0.00
eigval :       38.90    71.02   142.51   203.87   222.50   327.39
eigval :      353.08   359.75   377.65   441.16   470.27   489.71
eigval :      556.47   627.22   654.13   759.01   783.41   841.65
eigval :      870.16   877.57   893.38   897.20   999.47  1101.70
eigval :     1129.08  1182.92  1206.63  1262.25  1319.40  1351.42
eigval :     1428.46  1492.42  1542.66  1553.29  1626.35  2662.51
eigval :     3022.79  3029.01  3052.60  3062.65  3480.22  3608.10

   temp. (K)  partition function   enthalpy   heat capacity  entropy
                                   cal/mol     cal/K/mol   cal/K/mol   J/K/mol
 298.15  VIB   421.                 4187.279     27.998     24.753
         ROT  0.581E+06              888.752      2.981     29.356
         INT  0.245E+09             5076.031     30.979     54.109
         TR   0.139E+28             1481.254      4.968     40.415
         TOT                        6557.2853    35.9470    94.5239   395.4882

       T/K    H(0)-H(T)+PV         H(T)/Eh          T*S/Eh         G(T)/Eh
   ------------------------------------------------------------------------
    298.15    0.104497E-01    0.125205E+00    0.449114E-01    0.802940E-01
   ------------------------------------------------------------------------

         :::::::::::::::::::::::::::::::::::::::::::::::::::::
         ::                  THERMODYNAMIC                  ::
         :::::::::::::::::::::::::::::::::::::::::::::::::::::
         :: total free energy         -28.830480225404 Eh   ::
         ::.................................................::
         :: total energy              -28.910774225005 Eh   ::
         :: zero point energy           0.114755677935 Eh   ::
         :: G(RRHO) w/o ZPVE           -0.034461678334 Eh   ::
         :: G(RRHO) contrib.            0.080293999601 Eh   ::
         :::::::::::::::::::::::::::::::::::::::::::::::::::::

           -------------------------------------------------
          | TOTAL ENERGY              -28.910774225005 Eh   |
          | TOTAL ENTHALPY            -28.785568847763 Eh   |
          | TOTAL FREE ENERGY         -28.830480225404 Eh   |
          | GRADIENT NORM               0.000813660812 Eh/α |
          | HOMO-LUMO GAP               3.274044409921 eV   |
           -------------------------------------------------

 * finished run on 2025/10/18 at 03:02:29.029
normal termination of xtb
