   * xtb version 6.7.1 (edcfbbe) compiled by 'albert@albert-system' on 2024-07-22

   ID    Z sym.   atoms
    1    6 C      1, 2, 4, 5, 7, 9, 11
    2    1 H      3, 6, 8, 12-15
    3    8 O      10

          program call               : xtb xyz.xyz --charge -1 --ohess
          :  Hamiltonian                  GFN2-xTB          :
 * total energy  :   -22.7899198 Eh     change       -0.5727436E-09 Eh
 * total energy  :   -22.8126426 Eh     change       -0.2272277E-01 Eh
 * total energy  :   -22.8146967 Eh     change       -0.2054134E-02 Eh
 * total energy  :   -22.8148047 Eh     change       -0.1079754E-03 Eh
 * total energy  :   -22.8148133 Eh     change       -0.8597554E-05 Eh
 * total energy  :   -22.8148135 Eh     change       -0.1887620E-06 Eh
 * total energy  :   -22.8148151 Eh     change       -0.1561970E-05 Eh
   *** GEOMETRY OPTIMIZATION CONVERGED AFTER 7 ITERATIONS ***

 final structure:
================
15
 xtb: 6.7.1 (edcfbbe)
C           -5.23226830331011       -6.37895867579336        2.97482350341517
C           -5.06943754866262       -5.12913145262254        3.56110752834316
H           -5.90276701073514       -7.11149733469132        3.41296193051760
C           -4.67471889888274       -8.02339940709056        1.15434724905145
C           -4.22713928498510       -4.19056212390533        3.02259511665727
H           -5.62571292666489       -4.89574227394571        4.46817443306263
C           -3.46962689244207       -4.43859532761132        1.83258567891711
H           -4.11661682640298       -3.22136364971029        3.49861744976168
C           -3.67238382465534       -5.73795871608731        1.26841741885295
O           -2.69107432407746       -3.58628052787192        1.32486864669469
C           -4.51998674324604       -6.67429613916907        1.81558187083729
H           -5.37873067204742       -8.64956957591457        1.70362354749690
H           -5.03977067665721       -7.91334242372085        0.13112342900929
H           -3.71606013007164       -8.54424878141531        1.10863311363760
H           -3.12249893715924       -5.98056959045052        0.36395908374520

          :  Hamiltonian                  GFN2-xTB          :
         :: gradient norm              0.000103016067 Eh/a0 ::
         :: HOMO-LUMO gap              3.241872372969 eV    ::
         :: SCC energy               -23.166070102572 Eh    ::
         :: -> dispersion             -0.012509900160 Eh    ::
         :: repulsion energy           0.351255048584 Eh    ::

    * Orbital Energies and Occupations

         #    Occupation            Energy/Eh            Energy/eV
      -------------------------------------------------------------
         1        2.0000           -0.4640411             -12.6272
       ...           ...                  ...                  ...
         9        2.0000           -0.3440120              -9.3610
        10        2.0000           -0.3385052              -9.2112
        11        2.0000           -0.3171859              -8.6311
        12        2.0000           -0.2991156              -8.1394
        13        2.0000           -0.2926607              -7.9637
        14        2.0000           -0.2874236              -7.8212
        15        2.0000           -0.2800322              -7.6201
        16        2.0000           -0.2470295              -6.7220
        17        2.0000           -0.2466390              -6.7114
        18        2.0000           -0.2425856              -6.6011
        19        2.0000           -0.2083115              -5.6684
        20        2.0000           -0.1525981              -4.1524
        21        2.0000           -0.1466554              -3.9907 (HOMO)
        22                         -0.0275187              -0.7488 (LUMO)
        23                         -0.0021982              -0.0598
        24                          0.1098774               2.9899
        25                          0.2610767               7.1043
        26                          0.2804534               7.6315
        27                          0.3109921               8.4625
        28                          0.3230890               8.7917
        29                          0.3349860               9.1154
        30                          0.3514978               9.5647
        31                          0.3654762               9.9451
        32                          0.3806247              10.3573
       ...                                ...                  ...
        39                          0.8761852              23.8422
      -------------------------------------------------------------
                  HL-Gap            0.1191367 Eh            3.2419 eV

     #   Z          covCN         q      C6AA      α(0)
     1   6 C        2.920    -0.093    30.340     9.033
     2   6 C        2.911    -0.050    29.253     8.869
     3   1 H        0.925    -0.043     3.915     3.094
     4   6 C        3.756    -0.085    22.178     6.715
     5   6 C        2.917    -0.102    30.574     9.067
     6   1 H        0.925    -0.040     3.848     3.068
     7   6 C        2.828     0.181    24.119     8.047
     8   1 H        0.925    -0.024     3.505     2.928
     9   6 C        2.923    -0.108    30.719     9.089
    10   8 O        0.857    -0.615    26.491     6.901
    11   6 C        2.961    -0.016    28.409     8.742
    12   1 H        0.924     0.002     3.015     2.715
    13   1 H        0.924     0.007     2.946     2.684
    14   1 H        0.924     0.007     2.946     2.684
    15   1 H        0.925    -0.021     3.453     2.906

Wiberg/Mayer (AO) data.
largest (>0.10) Wiberg bond orders for each atom

     #   Z sym  total        # sym  WBO       # sym  WBO       # sym  WBO
 ---------------------------------------------------------------------------
     1   6 C    3.963 --     2 C    1.384    11 C    1.371     3 H    0.969
     2   6 C    3.986 --     5 C    1.519     1 C    1.384     6 H    0.969
     3   1 H    0.998 --     1 C    0.969
     4   6 C    3.993 --    11 C    1.005    12 H    0.988    13 H    0.981
                            14 H    0.981
     5   6 C    3.976 --     2 C    1.519     7 C    1.202     8 H    0.972
                            10 O    0.103
     6   1 H    0.998 --     2 C    0.969
     7   6 C    3.971 --    10 O    1.466     9 C    1.210     5 C    1.202
     8   1 H    0.999 --     5 C    0.972
     9   6 C    3.972 --    11 C    1.489     7 C    1.210    15 H    0.971
                            10 O    0.107
    10   8 O    1.786 --     7 C    1.466     9 C    0.107     5 C    0.103
    11   6 C    3.980 --     9 C    1.489     1 C    1.371     4 C    1.005
    12   1 H    1.000 --     4 C    0.988
    13   1 H    1.000 --     4 C    0.981
    14   1 H    1.000 --     4 C    0.981
    15   1 H    1.000 --     9 C    0.971
 ---------------------------------------------------------------------------

molecular dipole:
                 x           y           z       tot (Debye)
 q only:        6.869       8.807      -3.616
   full:        6.653       8.511      -3.515      28.874

 projected vibrational frequencies (cm⁻¹)
eigval :       -0.00    -0.00    -0.00     0.00     0.00     0.00
eigval :      -44.30   189.07   197.64   298.18   402.57   458.41
eigval :      497.70   520.42   540.49   655.46   743.85   748.53
eigval :      795.98   847.95   904.07   945.42   977.69  1017.77
eigval :     1026.10  1121.16  1188.98  1191.58  1246.04  1297.11
eigval :     1392.90  1395.27  1471.43  1502.73  1509.88  1542.44
eigval :     1554.71  1626.54  2946.28  2959.80  2973.83  2988.41
eigval :     2996.61  3005.22  3015.47

   temp. (K)  partition function   enthalpy   heat capacity  entropy
                                   cal/mol     cal/K/mol   cal/K/mol   J/K/mol
 298.15  VIB   7.41                 2232.966     19.108     11.470
         ROT  0.293E+06              888.752      2.981     27.996
         INT  0.217E+07             3121.718     22.089     39.466
         TR   0.107E+28             1481.254      4.968     39.905
         TOT                        4602.9722    27.0572    79.3712   332.0893

       T/K    H(0)-H(T)+PV         H(T)/Eh          T*S/Eh         G(T)/Eh
   ------------------------------------------------------------------------
    298.15    0.733530E-02    0.122824E+00    0.377118E-01    0.851122E-01
   ------------------------------------------------------------------------

         :::::::::::::::::::::::::::::::::::::::::::::::::::::
         ::                  THERMODYNAMIC                  ::
         :::::::::::::::::::::::::::::::::::::::::::::::::::::
         :: total free energy         -22.729702860094 Eh   ::
         ::.................................................::
         :: total energy              -22.814815053990 Eh   ::
         :: zero point energy           0.115488730655 Eh   ::
         :: G(RRHO) w/o ZPVE           -0.030376536759 Eh   ::
         :: G(RRHO) contrib.            0.085112193896 Eh   ::
         :::::::::::::::::::::::::::::::::::::::::::::::::::::

           -------------------------------------------------
          | TOTAL ENERGY              -22.814815053990 Eh   |
          | TOTAL ENTHALPY            -22.691991020171 Eh   |
          | TOTAL FREE ENERGY         -22.729702860094 Eh   |
          | GRADIENT NORM               0.000103011518 Eh/α |
          | HOMO-LUMO GAP               3.241874393658 eV   |
           -------------------------------------------------

 * finished run on 2025/10/18 at 02:46:00.334
