   * xtb version 6.7.1 (edcfbbe) compiled by 'albert@albert-system' on 2024-07-22

   ID    Z sym.   atoms
    1    6 C      1-3, 5, 7, 9, 11
    2    1 H      4, 6, 8, 12-15
    3    8 O      10

          program call               : xtb xyz.xyz --alpb water --charge -1 --ohess
      * Solvation model:               ALPB
        Solvent                        water
        Solvent mass                       1.8000E+01 g/mol
          :  Hamiltonian                  GFN2-xTB          :
 * total energy  :   -22.9010766 Eh     change       -0.4912764E-09 Eh
 * total energy  :   -22.9038592 Eh     change       -0.2782575E-02 Eh
 * total energy  :   -22.9043922 Eh     change       -0.5330492E-03 Eh
 * total energy  :   -22.9044636 Eh     change       -0.7136953E-04 Eh
 * total energy  :   -22.9044794 Eh     change       -0.1575135E-04 Eh
 * total energy  :   -22.9044802 Eh     change       -0.8760529E-06 Eh
   *** GEOMETRY OPTIMIZATION CONVERGED AFTER 6 ITERATIONS ***

 final structure:
================
15
 xtb: 6.7.1 (edcfbbe)
C           -5.26100949035332       -6.50099156197778        2.93384635618243
C           -5.08370433888902       -5.24975376749784        3.50080913319178
C           -2.94460445818223       -6.28634462073637       -0.06587939301716
H           -4.68467246298923       -7.78797538813109        1.32310751097544
C           -4.22750707924688       -4.33621243173092        2.93042533162527
H           -5.62248791382579       -4.98233442176245        4.40315446078037
C           -3.49085447245296       -4.61847934122044        1.75050690975895
H           -4.08951458623523       -3.35580749231521        3.37601583467809
C           -3.69261294708391       -5.91743940098269        1.18577299774792
O           -2.69294128556202       -3.75381600605305        1.22733599014721
C           -4.55656563564349       -6.81176930935406        1.77923082719561
H           -5.93311057530441       -7.22061833634365        3.37976969329692
H           -2.32766204175126       -5.43559714029695       -0.35395639371334
H           -2.30084201796177       -7.15079531045344        0.10069579739141
H           -3.63134069451848       -6.51830247114406       -0.88074505624090

          :  Hamiltonian                  GFN2-xTB          :
         :: gradient norm              0.000294429515 Eh/a0 ::
         :: HOMO-LUMO gap              3.407821625794 eV    ::
         :: SCC energy               -23.256427300353 Eh    ::
         :: -> dispersion             -0.012507010391 Eh    ::
         :: -> Gsolv                  -0.096349688144 Eh    ::
         :: repulsion energy           0.351947063513 Eh    ::

    * Orbital Energies and Occupations

         #    Occupation            Energy/Eh            Energy/eV
      -------------------------------------------------------------
         1        2.0000           -0.6168604             -16.7856
       ...           ...                  ...                  ...
         9        2.0000           -0.4754805             -12.9385
        10        2.0000           -0.4713541             -12.8262
        11        2.0000           -0.4693027             -12.7704
        12        2.0000           -0.4438198             -12.0770
        13        2.0000           -0.4404481             -11.9852
        14        2.0000           -0.4386247             -11.9356
        15        2.0000           -0.4351552             -11.8412
        16        2.0000           -0.4052018             -11.0261
        17        2.0000           -0.4023541             -10.9486
        18        2.0000           -0.3947360             -10.7413
        19        2.0000           -0.3620373              -9.8515
        20        2.0000           -0.3214458              -8.7470
        21        2.0000           -0.3077339              -8.3739 (HOMO)
        22                         -0.1824987              -4.9660 (LUMO)
        23                         -0.1616820              -4.3996
        24                         -0.0480398              -1.3072
        25                          0.1294653               3.5229
        26                          0.1451377               3.9494
        27                          0.1779677               4.8427
        28                          0.1851914               5.0393
        29                          0.1930170               5.2523
        30                          0.2219930               6.0407
        31                          0.2395380               6.5182
        32                          0.2496659               6.7938
       ...                                ...                  ...
        39                          0.7043485              19.1663
      -------------------------------------------------------------
                  HL-Gap            0.1252351 Eh            3.4078 eV

     #   Z          covCN         q      C6AA      α(0)
     1   6 C        2.916    -0.081    30.035     8.987
     2   6 C        2.915    -0.053    29.323     8.880
     3   6 C        3.756    -0.089    22.259     6.727
     4   1 H        0.925    -0.003     3.103     2.755
     5   6 C        2.917    -0.101    30.533     9.061
     6   1 H        0.925    -0.008     3.202     2.798
     7   6 C        2.835     0.159    24.564     8.122
     8   1 H        0.925    -0.030     3.643     2.985
     9   6 C        2.964    -0.065    29.614     8.926
    10   8 O        0.857    -0.734    29.668     7.303
    11   6 C        2.920    -0.059    29.456     8.900
    12   1 H        0.926    -0.004     3.129     2.766
    13   1 H        0.925     0.026     2.651     2.546
    14   1 H        0.924     0.022     2.707     2.573
    15   1 H        0.924     0.022     2.707     2.573

Wiberg/Mayer (AO) data.
largest (>0.10) Wiberg bond orders for each atom

     #   Z sym  total        # sym  WBO       # sym  WBO       # sym  WBO
 ---------------------------------------------------------------------------
     1   6 C    3.978 --     2 C    1.409    11 C    1.397    12 H    0.973
     2   6 C    3.989 --     5 C    1.484     1 C    1.409     6 H    0.971
     3   6 C    3.998 --     9 C    1.018    13 H    0.984    15 H    0.979
                            14 H    0.979
     4   1 H    1.000 --    11 C    0.969
     5   6 C    3.976 --     2 C    1.484     7 C    1.260     8 H    0.971
                            10 O    0.101
     6   1 H    1.000 --     2 C    0.971
     7   6 C    3.965 --    10 O    1.360     5 C    1.260     9 C    1.224
     8   1 H    0.999 --     5 C    0.971
     9   6 C    3.979 --    11 C    1.481     7 C    1.224     3 C    1.018
    10   8 O    1.663 --     7 C    1.360     5 C    0.101
    11   6 C    3.989 --     9 C    1.481     1 C    1.397     4 H    0.969
    12   1 H    1.000 --     1 C    0.973
    13   1 H    0.999 --     3 C    0.984
    14   1 H    0.999 --     3 C    0.979
    15   1 H    0.999 --     3 C    0.979
 ---------------------------------------------------------------------------

molecular dipole:
                 x           y           z       tot (Debye)
 q only:        6.303       8.257      -3.213
   full:        6.238       8.210      -3.155      27.406

 projected vibrational frequencies (cm⁻¹)
eigval :       -0.00    -0.00     0.00     0.00     0.00     0.00
eigval :       69.76   151.31   253.47   288.65   404.39   431.63
eigval :      509.45   521.86   562.97   668.94   755.19   774.70
eigval :      825.86   845.33   883.81   900.97   991.58  1036.48
eigval :     1088.29  1124.05  1173.63  1202.98  1248.91  1318.13
eigval :     1348.25  1386.34  1459.36  1484.93  1495.50  1504.05
eigval :     1542.80  1606.09  2963.35  2979.39  2986.56  2997.78
eigval :     3007.77  3009.85  3049.14

   temp. (K)  partition function   enthalpy   heat capacity  entropy
                                   cal/mol     cal/K/mol   cal/K/mol   J/K/mol
 298.15  VIB   26.3                 2710.812     20.715     15.388
         ROT  0.270E+06              888.752      2.981     27.833
         INT  0.709E+07             3599.564     23.696     43.221
         TR   0.107E+28             1481.254      4.968     39.905
         TOT                        5080.8183    28.6640    83.1262   347.8001

       T/K    H(0)-H(T)+PV         H(T)/Eh          T*S/Eh         G(T)/Eh
   ------------------------------------------------------------------------
    298.15    0.809680E-02    0.123950E+00    0.394959E-01    0.844536E-01
   ------------------------------------------------------------------------

         :::::::::::::::::::::::::::::::::::::::::::::::::::::
         ::                  THERMODYNAMIC                  ::
         :::::::::::::::::::::::::::::::::::::::::::::::::::::
         :: total free energy         -22.820026654060 Eh   ::
         ::.................................................::
         :: total energy              -22.904480236354 Eh   ::
         :: zero point energy           0.115852727417 Eh   ::
         :: G(RRHO) w/o ZPVE           -0.031399145123 Eh   ::
         :: G(RRHO) contrib.            0.084453582294 Eh   ::
         :::::::::::::::::::::::::::::::::::::::::::::::::::::

           -------------------------------------------------
          | TOTAL ENERGY              -22.904480236354 Eh   |
          | TOTAL ENTHALPY            -22.780530709615 Eh   |
          | TOTAL FREE ENERGY         -22.820026654060 Eh   |
          | GRADIENT NORM               0.000294452151 Eh/α |
          | HOMO-LUMO GAP               3.407821791957 eV   |
           -------------------------------------------------

 * finished run on 2025/10/18 at 02:24:31.873
