   * xtb version 6.7.1 (edcfbbe) compiled by 'albert@albert-system' on 2024-07-22

   ID    Z sym.   atoms
    1    7 N      1
    2    6 C      2, 3
    3    1 H      4, 5, 7, 8
    4    8 O      6

          program call               : xtb tb_lite_results_shiftn0p25_gp45_b0_rot270_complex.xyz --ohess --chrg -1 --alpb water
      * Solvation model:               ALPB
        Solvent                        water
        Solvent mass                       1.8000E+01 g/mol
          :  Hamiltonian                  GFN2-xTB          :
 * total energy  :   -13.5170330 Eh     change       -0.7954526E-11 Eh
 * total energy  :   -13.5210065 Eh     change       -0.3973576E-02 Eh
 * total energy  :   -13.5210475 Eh     change       -0.4093292E-04 Eh
 * total energy  :   -13.5212006 Eh     change       -0.1531882E-03 Eh
 * total energy  :   -13.5212300 Eh     change       -0.2930104E-04 Eh
 * total energy  :   -13.5212351 Eh     change       -0.5108451E-05 Eh
 * total energy  :   -13.5212388 Eh     change       -0.3771124E-05 Eh
   *** GEOMETRY OPTIMIZATION CONVERGED AFTER 7 ITERATIONS ***

 final structure:
================
8
 xtb: 6.7.1 (edcfbbe)
N           -8.66154310193743       -3.29604873000404       -1.79504036228751
C           -7.70399898283519       -2.59875471364689       -1.80482971058504
C           -6.61886584681060       -1.82938777181264       -1.84789230964309
H           -5.73804982918554       -2.08558190760814       -1.27764947823594
H           -6.66289396581144       -0.84048585697717       -2.28026853873017
O           -9.19683232598237       -5.17883013414168       -3.60181396527576
H           -9.03351577896463       -4.49116061561001       -2.89025370602097
H           -8.59788538019310       -4.94433733181895       -4.31664050540146

          :  Hamiltonian                  GFN2-xTB          :
         :: gradient norm              0.000323230920 Eh/a0 ::
         :: HOMO-LUMO gap              3.628083790324 eV    ::
         :: SCC energy               -13.712136977708 Eh    ::
         :: -> dispersion             -0.003264131184 Eh    ::
         :: -> Gsolv                  -0.105066567954 Eh    ::
         :: repulsion energy           0.190898147311 Eh    ::

    * Orbital Energies and Occupations

         #    Occupation            Energy/Eh            Energy/eV
      -------------------------------------------------------------
         1        2.0000           -0.6444940             -17.5376
         2        2.0000           -0.5617768             -15.2867
         3        2.0000           -0.5312730             -14.4567
         4        2.0000           -0.5218380             -14.1999
         5        2.0000           -0.4777778             -13.0010
         6        2.0000           -0.4558329             -12.4038
         7        2.0000           -0.4457058             -12.1283
         8        2.0000           -0.4094888             -11.1428
         9        2.0000           -0.3972150             -10.8088
        10        2.0000           -0.3776741             -10.2770
        11        2.0000           -0.3555950              -9.6762
        12        2.0000           -0.2713046              -7.3826 (HOMO)
        13                         -0.1379750              -3.7545 (LUMO)
        14                         -0.0735682              -2.0019
        15                          0.1375096               3.7418
        16                          0.1802575               4.9051
        17                          0.2957949               8.0490
        18                          0.3600495               9.7974
        19                          0.4120004              11.2111
        20                          1.2009514              32.6796
      -------------------------------------------------------------
                  HL-Gap            0.1333296 Eh            3.6281 eV

     #   Z          covCN         q      C6AA      α(0)
     1   7 N        0.922    -0.594    36.252     8.701
     2   6 C        1.891     0.055    29.721     8.805
     3   6 C        2.833    -0.239    34.438     9.617
     4   1 H        0.926    -0.073     4.688     3.386
     5   1 H        0.926    -0.072     4.676     3.382
     6   8 O        1.604    -0.706    27.883     7.127
     7   1 H        0.809     0.300     0.720     1.332
     8   1 H        0.805     0.329     0.641     1.257

Wiberg/Mayer (AO) data.
largest (>0.10) Wiberg bond orders for each atom

     #   Z sym  total        # sym  WBO       # sym  WBO       # sym  WBO
 ---------------------------------------------------------------------------
     1   7 N    2.838 --     2 C    2.374     3 C    0.269
     2   6 C    3.944 --     1 N    2.374     3 C    1.541
     3   6 C    3.736 --     2 C    1.541     4 H    0.955     5 H    0.955
                             1 N    0.269
     4   1 H    0.995 --     3 C    0.955
     5   1 H    0.995 --     3 C    0.955
     6   8 O    1.750 --     8 H    0.891     7 H    0.804
     7   1 H    0.910 --     6 O    0.804
     8   1 H    0.892 --     6 O    0.891
 ---------------------------------------------------------------------------

molecular dipole:
                 x           y           z       tot (Debye)
 q only:       15.414       5.949       3.635
   full:       15.922       6.426       3.687      44.637

 projected vibrational frequencies (cm⁻¹)
eigval :       -0.00    -0.00    -0.00     0.00     0.00     0.00
eigval :      -67.67    45.74   150.81   194.75   258.96   372.16
eigval :      478.70   512.49   783.04   954.83  1202.91  1436.10
eigval :     1502.57  2238.30  2671.04  2995.37  3017.86  3623.39

   temp. (K)  partition function   enthalpy   heat capacity  entropy
                                   cal/mol     cal/K/mol   cal/K/mol   J/K/mol
 298.15  VIB   33.9                 2181.860     12.415     13.517
         ROT  0.630E+05              888.752      2.981     24.943
         INT  0.214E+07             3070.612     15.396     38.460
         TR   0.428E+27             1481.254      4.968     38.080
         TOT                        4551.8658    20.3638    76.5402   320.2443

       T/K    H(0)-H(T)+PV         H(T)/Eh          T*S/Eh         G(T)/Eh
   ------------------------------------------------------------------------
    298.15    0.725386E-02    0.583737E-01    0.363667E-01    0.220070E-01
   ------------------------------------------------------------------------

         :::::::::::::::::::::::::::::::::::::::::::::::::::::
         ::                  THERMODYNAMIC                  ::
         :::::::::::::::::::::::::::::::::::::::::::::::::::::
         :: total free energy         -13.499231815756 Eh   ::
         ::.................................................::
         :: total energy              -13.521238829739 Eh   ::
         :: zero point energy           0.051119889512 Eh   ::
         :: G(RRHO) w/o ZPVE           -0.029112875529 Eh   ::
         :: G(RRHO) contrib.            0.022007013983 Eh   ::
         :::::::::::::::::::::::::::::::::::::::::::::::::::::

           -------------------------------------------------
          | TOTAL ENERGY              -13.521238829739 Eh   |
          | TOTAL ENTHALPY            -13.462865080371 Eh   |
          | TOTAL FREE ENERGY         -13.499231815756 Eh   |
          | GRADIENT NORM               0.000323220379 Eh/α |
          | HOMO-LUMO GAP               3.628082284535 eV   |
           -------------------------------------------------

 * finished run on 2025/10/17 at 21:43:09.639
normal termination of xtb
