   * xtb version 6.7.1 (edcfbbe) compiled by 'albert@albert-system' on 2024-07-22

   ID    Z sym.   atoms
    1    7 N      1
    2    6 C      2, 3
    3    1 H      4, 5, 7, 8
    4    8 O      6

          program call               : xtb tb_lite_results_shiftn0p2_gp75_b0_rot0_complex.xyz --ohess --chrg -1 --alpb water
      * Solvation model:               ALPB
        Solvent                        water
        Solvent mass                       1.8000E+01 g/mol
          :  Hamiltonian                  GFN2-xTB          :
 * total energy  :   -13.5174828 Eh     change       -0.1165823E-10 Eh
 * total energy  :   -13.5205780 Eh     change       -0.3095205E-02 Eh
 * total energy  :   -13.5199960 Eh     change        0.5820950E-03 Eh
 * total energy  :   -13.5209643 Eh     change       -0.9683374E-03 Eh
 * total energy  :   -13.5210456 Eh     change       -0.8133523E-04 Eh
 * total energy  :   -13.5211387 Eh     change       -0.9309408E-04 Eh
 * total energy  :   -13.5211976 Eh     change       -0.5886847E-04 Eh
 * total energy  :   -13.5212319 Eh     change       -0.3429736E-04 Eh
 * total energy  :   -13.5212538 Eh     change       -0.2188706E-04 Eh
 * total energy  :   -13.5212698 Eh     change       -0.1601302E-04 Eh
 * total energy  :   -13.5212796 Eh     change       -0.9825527E-05 Eh
 * total energy  :   -13.5212875 Eh     change       -0.7893140E-05 Eh
 * total energy  :   -13.5212971 Eh     change       -0.9634371E-05 Eh
 * total energy  :   -13.5212999 Eh     change       -0.2770864E-05 Eh
 * total energy  :   -13.5213039 Eh     change       -0.3953219E-05 Eh
 * total energy  :   -13.5213078 Eh     change       -0.3930395E-05 Eh
   *** GEOMETRY OPTIMIZATION CONVERGED AFTER 16 ITERATIONS ***

 final structure:
================
8
 xtb: 6.7.1 (edcfbbe)
N           -8.66810117329940       -3.36452401269091       -2.02329978541611
C           -7.74875402585559       -2.63060228070603       -1.88075445600392
C           -6.71799317375217       -1.80508714631772       -1.72662557660398
H           -5.88788813532445       -2.06637733139175       -1.08798224541890
H           -6.65554395210027       -0.88450838329605       -2.28684473351241
O          -10.81548592850606       -3.32520335868948       -0.44681778951053
H          -10.00491317723481       -3.38836332123275       -1.03570665224656
H          -11.11265418476255       -2.41318549963283       -0.52607855431263

          :  Hamiltonian                  GFN2-xTB          :
         :: gradient norm              0.000834539665 Eh/a0 ::
         :: HOMO-LUMO gap              3.613492088937 eV    ::
         :: SCC energy               -13.712361800470 Eh    ::
         :: -> dispersion             -0.003264659800 Eh    ::
         :: -> Gsolv                  -0.105738545239 Eh    ::
         :: repulsion energy           0.191054008006 Eh    ::

    * Orbital Energies and Occupations

         #    Occupation            Energy/Eh            Energy/eV
      -------------------------------------------------------------
         1        2.0000           -0.6445379             -17.5388
         2        2.0000           -0.5611727             -15.2703
         3        2.0000           -0.5309932             -14.4491
         4        2.0000           -0.5218408             -14.2000
         5        2.0000           -0.4776233             -12.9968
         6        2.0000           -0.4556442             -12.3987
         7        2.0000           -0.4457003             -12.1281
         8        2.0000           -0.4094196             -11.1409
         9        2.0000           -0.3964276             -10.7873
        10        2.0000           -0.3772921             -10.2666
        11        2.0000           -0.3556017              -9.6764
        12        2.0000           -0.2705628              -7.3624 (HOMO)
        13                         -0.1377696              -3.7489 (LUMO)
        14                         -0.0720304              -1.9600
        15                          0.1370250               3.7286
        16                          0.1781812               4.8486
        17                          0.2951539               8.0315
        18                          0.3642345               9.9113
        19                          0.4134527              11.2506
        20                          1.2017796              32.7021
      -------------------------------------------------------------
                  HL-Gap            0.1327932 Eh            3.6135 eV

     #   Z          covCN         q      C6AA      α(0)
     1   7 N        0.922    -0.595    36.302     8.706
     2   6 C        1.891     0.055    29.720     8.805
     3   6 C        2.833    -0.239    34.423     9.614
     4   1 H        0.926    -0.072     4.665     3.377
     5   1 H        0.926    -0.070     4.625     3.363
     6   8 O        1.603    -0.708    27.934     7.133
     7   1 H        0.809     0.298     0.727     1.339
     8   1 H        0.805     0.331     0.634     1.250

Wiberg/Mayer (AO) data.
largest (>0.10) Wiberg bond orders for each atom

     #   Z sym  total        # sym  WBO       # sym  WBO       # sym  WBO
 ---------------------------------------------------------------------------
     1   7 N    2.834 --     2 C    2.369     3 C    0.269
     2   6 C    3.944 --     1 N    2.369     3 C    1.547
     3   6 C    3.744 --     2 C    1.547     5 H    0.955     4 H    0.955
                             1 N    0.269
     4   1 H    0.995 --     3 C    0.955
     5   1 H    0.995 --     3 C    0.955
     6   8 O    1.749 --     8 H    0.889     7 H    0.804
     7   1 H    0.911 --     6 O    0.804
     8   1 H    0.890 --     6 O    0.889
 ---------------------------------------------------------------------------

molecular dipole:
                 x           y           z       tot (Debye)
 q only:       15.544       5.756       2.996
   full:       16.029       6.194       2.930      44.307

 projected vibrational frequencies (cm⁻¹)
eigval :       -0.00    -0.00     0.00     0.00     0.00     0.00
eigval :       53.97    95.55   136.38   145.49   243.04   371.15
eigval :      506.31   524.11   782.65   951.04  1205.19  1434.01
eigval :     1510.41  2237.01  2649.16  3004.40  3024.53  3609.35

   temp. (K)  partition function   enthalpy   heat capacity  entropy
                                   cal/mol     cal/K/mol   cal/K/mol   J/K/mol
 298.15  VIB   104.                 2701.700     14.465     17.734
         ROT  0.633E+05              888.752      2.981     24.951
         INT  0.660E+07             3590.452     17.446     42.685
         TR   0.428E+27             1481.254      4.968     38.080
         TOT                        5071.7058    22.4144    80.7655   337.9228

       T/K    H(0)-H(T)+PV         H(T)/Eh          T*S/Eh         G(T)/Eh
   ------------------------------------------------------------------------
    298.15    0.808228E-02    0.593040E-01    0.383743E-01    0.209297E-01
   ------------------------------------------------------------------------

         :::::::::::::::::::::::::::::::::::::::::::::::::::::
         ::                  THERMODYNAMIC                  ::
         :::::::::::::::::::::::::::::::::::::::::::::::::::::
         :: total free energy         -13.500378055514 Eh   ::
         ::.................................................::
         :: total energy              -13.521307793292 Eh   ::
         :: zero point energy           0.051221749598 Eh   ::
         :: G(RRHO) w/o ZPVE           -0.030292011820 Eh   ::
         :: G(RRHO) contrib.            0.020929737778 Eh   ::
         :::::::::::::::::::::::::::::::::::::::::::::::::::::

           -------------------------------------------------
          | TOTAL ENERGY              -13.521307793292 Eh   |
          | TOTAL ENTHALPY            -13.462003766020 Eh   |
          | TOTAL FREE ENERGY         -13.500378055514 Eh   |
          | GRADIENT NORM               0.000834697617 Eh/α |
          | HOMO-LUMO GAP               3.613487216840 eV   |
           -------------------------------------------------

 * finished run on 2025/10/17 at 21:43:14.631
normal termination of xtb
