   * xtb version 6.7.1 (edcfbbe) compiled by 'albert@albert-system' on 2024-07-22

   ID    Z sym.   atoms
    1    7 N      1
    2    6 C      2, 3
    3    1 H      4, 5, 7, 8
    4    8 O      6

          program call               : xtb tb_lite_results_shiftn0p15_gp45_b0_rot270_complex.xyz --ohess --chrg -1 --alpb water
      * Solvation model:               ALPB
        Solvent                        water
        Solvent mass                       1.8000E+01 g/mol
          :  Hamiltonian                  GFN2-xTB          :
 * total energy  :   -13.5178829 Eh     change       -0.2021494E-10 Eh
 * total energy  :   -13.5208790 Eh     change       -0.2996054E-02 Eh
 * total energy  :   -13.5208515 Eh     change        0.2751484E-04 Eh
 * total energy  :   -13.5211441 Eh     change       -0.2926071E-03 Eh
 * total energy  :   -13.5211935 Eh     change       -0.4938538E-04 Eh
 * total energy  :   -13.5212187 Eh     change       -0.2528740E-04 Eh
 * total energy  :   -13.5212307 Eh     change       -0.1196856E-04 Eh
 * total energy  :   -13.5212353 Eh     change       -0.4610757E-05 Eh
   *** GEOMETRY OPTIMIZATION CONVERGED AFTER 8 ITERATIONS ***

 final structure:
================
8
 xtb: 6.7.1 (edcfbbe)
N           -8.66447180853349       -3.32388790798826       -1.84497230874304
C           -7.70986203681524       -2.62253034646992       -1.83625295541351
C           -6.62709377762114       -1.84866803508962       -1.85811574476528
H           -5.75405188623442       -2.10777434434107       -1.27758278230436
H           -6.67109253762319       -0.85541659134232       -2.27995742156798
O           -9.20007059820053       -5.21624971850519       -3.63484972944856
H           -9.03354423224929       -4.52274053532475       -2.92817972305189
H           -8.61818552199782       -4.97444589707292       -4.36160422539986

          :  Hamiltonian                  GFN2-xTB          :
         :: gradient norm              0.000720596417 Eh/a0 ::
         :: HOMO-LUMO gap              3.627756393918 eV    ::
         :: SCC energy               -13.711955764615 Eh    ::
         :: -> dispersion             -0.003257484351 Eh    ::
         :: -> Gsolv                  -0.105044887810 Eh    ::
         :: repulsion energy           0.190720439526 Eh    ::

    * Orbital Energies and Occupations

         #    Occupation            Energy/Eh            Energy/eV
      -------------------------------------------------------------
         1        2.0000           -0.6440888             -17.5265
         2        2.0000           -0.5618357             -15.2883
         3        2.0000           -0.5312928             -14.4572
         4        2.0000           -0.5213704             -14.1872
         5        2.0000           -0.4774965             -12.9933
         6        2.0000           -0.4557365             -12.4012
         7        2.0000           -0.4457740             -12.1301
         8        2.0000           -0.4090630             -11.1312
         9        2.0000           -0.3972926             -10.8109
        10        2.0000           -0.3777614             -10.2794
        11        2.0000           -0.3557058              -9.6792
        12        2.0000           -0.2713489              -7.3838 (HOMO)
        13                         -0.1380314              -3.7560 (LUMO)
        14                         -0.0737313              -2.0063
        15                          0.1372740               3.7354
        16                          0.1804739               4.9109
        17                          0.2950552               8.0289
        18                          0.3607477               9.8164
        19                          0.4120707              11.2130
        20                          1.2010326              32.6818
      -------------------------------------------------------------
                  HL-Gap            0.1333176 Eh            3.6278 eV

     #   Z          covCN         q      C6AA      α(0)
     1   7 N        0.924    -0.593    36.220     8.696
     2   6 C        1.891     0.055    29.720     8.805
     3   6 C        2.833    -0.239    34.441     9.617
     4   1 H        0.926    -0.072     4.680     3.383
     5   1 H        0.926    -0.072     4.667     3.378
     6   8 O        1.603    -0.707    27.910     7.130
     7   1 H        0.810     0.300     0.719     1.332
     8   1 H        0.805     0.328     0.641     1.258

Wiberg/Mayer (AO) data.
largest (>0.10) Wiberg bond orders for each atom

     #   Z sym  total        # sym  WBO       # sym  WBO       # sym  WBO
 ---------------------------------------------------------------------------
     1   7 N    2.840 --     2 C    2.374     3 C    0.269
     2   6 C    3.944 --     1 N    2.374     3 C    1.541
     3   6 C    3.736 --     2 C    1.541     4 H    0.955     5 H    0.955
                             1 N    0.269
     4   1 H    0.995 --     3 C    0.955
     5   1 H    0.995 --     3 C    0.955
     6   8 O    1.749 --     8 H    0.891     7 H    0.803
     7   1 H    0.910 --     6 O    0.803
     8   1 H    0.892 --     6 O    0.891
 ---------------------------------------------------------------------------

molecular dipole:
                 x           y           z       tot (Debye)
 q only:       15.419       6.011       3.691
   full:       15.921       6.490       3.749      44.726

 projected vibrational frequencies (cm⁻¹)
eigval :       -0.00    -0.00    -0.00    -0.00     0.00     0.00
eigval :       38.47    42.88   152.34   197.38   260.41   372.31
eigval :      484.81   512.20   790.41   955.72  1202.75  1435.09
eigval :     1503.42  2237.67  2653.53  2997.64  3019.01  3619.95

   temp. (K)  partition function   enthalpy   heat capacity  entropy
                                   cal/mol     cal/K/mol   cal/K/mol   J/K/mol
 298.15  VIB   208.                 2714.919     13.571     17.643
         ROT  0.624E+05              888.752      2.981     24.924
         INT  0.130E+08             3603.671     16.552     42.567
         TR   0.428E+27             1481.254      4.968     38.080
         TOT                        5084.9250    21.5205    80.6475   337.4290

       T/K    H(0)-H(T)+PV         H(T)/Eh          T*S/Eh         G(T)/Eh
   ------------------------------------------------------------------------
    298.15    0.810334E-02    0.593074E-01    0.383182E-01    0.209892E-01
   ------------------------------------------------------------------------

         :::::::::::::::::::::::::::::::::::::::::::::::::::::
         ::                  THERMODYNAMIC                  ::
         :::::::::::::::::::::::::::::::::::::::::::::::::::::
         :: total free energy         -13.500246113246 Eh   ::
         ::.................................................::
         :: total energy              -13.521235324641 Eh   ::
         :: zero point energy           0.051204082721 Eh   ::
         :: G(RRHO) w/o ZPVE           -0.030214871325 Eh   ::
         :: G(RRHO) contrib.            0.020989211396 Eh   ::
         :::::::::::::::::::::::::::::::::::::::::::::::::::::

           -------------------------------------------------
          | TOTAL ENERGY              -13.521235324641 Eh   |
          | TOTAL ENTHALPY            -13.461927898181 Eh   |
          | TOTAL FREE ENERGY         -13.500246113246 Eh   |
          | GRADIENT NORM               0.000720587888 Eh/α |
          | HOMO-LUMO GAP               3.627755902658 eV   |
           -------------------------------------------------

 * finished run on 2025/10/17 at 21:43:10.980
normal termination of xtb
