   * xtb version 6.7.1 (edcfbbe) compiled by 'albert@albert-system' on 2024-07-22

   ID    Z sym.   atoms
    1    7 N      1
    2    6 C      2, 3
    3    1 H      4, 5, 7, 8
    4    8 O      6

          program call               : xtb tb_lite_results_shiftn0p2_gp45_b0_rot270_complex.xyz --ohess --chrg -1 --alpb water
      * Solvation model:               ALPB
        Solvent                        water
        Solvent mass                       1.8000E+01 g/mol
          :  Hamiltonian                  GFN2-xTB          :
 * total energy  :   -13.5176026 Eh     change       -0.7432277E-11 Eh
 * total energy  :   -13.5209710 Eh     change       -0.3368447E-02 Eh
 * total energy  :   -13.5209612 Eh     change        0.9797049E-05 Eh
 * total energy  :   -13.5211811 Eh     change       -0.2199131E-03 Eh
 * total energy  :   -13.5212099 Eh     change       -0.2880712E-04 Eh
 * total energy  :   -13.5212215 Eh     change       -0.1157902E-04 Eh
 * total energy  :   -13.5212310 Eh     change       -0.9460129E-05 Eh
 * total energy  :   -13.5212343 Eh     change       -0.3325849E-05 Eh
   *** GEOMETRY OPTIMIZATION CONVERGED AFTER 8 ITERATIONS ***

 final structure:
================
8
 xtb: 6.7.1 (edcfbbe)
N           -8.65888267795870       -3.31448909243192       -1.81629105459088
C           -7.70318667752030       -2.61465443988984       -1.81805032084913
C           -6.61960370823580       -1.84243317251186       -1.85184890259353
H           -5.74114958482010       -2.10063411549212       -1.27914064594757
H           -6.66547829221632       -0.85049821895713       -2.27661383275037
O           -9.20531014216825       -5.19058278801593       -3.62266070750618
H           -9.03651059287877       -4.50483204030391       -2.90992582556635
H           -8.61585712969951       -4.95002635127397       -4.34342044363321

          :  Hamiltonian                  GFN2-xTB          :
         :: gradient norm              0.000360303134 Eh/a0 ::
         :: HOMO-LUMO gap              3.628311962327 eV    ::
         :: SCC energy               -13.712100050141 Eh    ::
         :: -> dispersion             -0.003260801646 Eh    ::
         :: -> Gsolv                  -0.105040272152 Eh    ::
         :: repulsion energy           0.190865763021 Eh    ::

    * Orbital Energies and Occupations

         #    Occupation            Energy/Eh            Energy/eV
      -------------------------------------------------------------
         1        2.0000           -0.6442915             -17.5321
         2        2.0000           -0.5618142             -15.2877
         3        2.0000           -0.5312815             -14.4569
         4        2.0000           -0.5216076             -14.1937
         5        2.0000           -0.4776363             -12.9971
         6        2.0000           -0.4557771             -12.4023
         7        2.0000           -0.4457394             -12.1292
         8        2.0000           -0.4092714             -11.1368
         9        2.0000           -0.3972593             -10.8100
        10        2.0000           -0.3777290             -10.2785
        11        2.0000           -0.3556544              -9.6778
        12        2.0000           -0.2713211              -7.3830 (HOMO)
        13                         -0.1379830              -3.7547 (LUMO)
        14                         -0.0736485              -2.0041
        15                          0.1375413               3.7427
        16                          0.1804911               4.9114
        17                          0.2956177               8.0442
        18                          0.3605388               9.8108
        19                          0.4120733              11.2131
        20                          1.2011055              32.6837
      -------------------------------------------------------------
                  HL-Gap            0.1333380 Eh            3.6283 eV

     #   Z          covCN         q      C6AA      α(0)
     1   7 N        0.923    -0.593    36.235     8.698
     2   6 C        1.891     0.055    29.721     8.805
     3   6 C        2.833    -0.239    34.441     9.617
     4   1 H        0.926    -0.072     4.684     3.384
     5   1 H        0.926    -0.072     4.671     3.380
     6   8 O        1.604    -0.707    27.896     7.128
     7   1 H        0.810     0.300     0.719     1.332
     8   1 H        0.805     0.328     0.641     1.258

Wiberg/Mayer (AO) data.
largest (>0.10) Wiberg bond orders for each atom

     #   Z sym  total        # sym  WBO       # sym  WBO       # sym  WBO
 ---------------------------------------------------------------------------
     1   7 N    2.839 --     2 C    2.374     3 C    0.269
     2   6 C    3.944 --     1 N    2.374     3 C    1.541
     3   6 C    3.736 --     2 C    1.541     4 H    0.955     5 H    0.955
                             1 N    0.269
     4   1 H    0.995 --     3 C    0.955
     5   1 H    0.995 --     3 C    0.955
     6   8 O    1.750 --     8 H    0.891     7 H    0.803
     7   1 H    0.910 --     6 O    0.803
     8   1 H    0.892 --     6 O    0.891
 ---------------------------------------------------------------------------

molecular dipole:
                 x           y           z       tot (Debye)
 q only:       15.413       5.985       3.661
   full:       15.918       6.463       3.717      44.676

 projected vibrational frequencies (cm⁻¹)
eigval :       -0.00    -0.00    -0.00     0.00     0.00     0.00
eigval :      -56.75    41.28   151.88   193.95   259.58   372.15
eigval :      479.07   511.95   787.36   955.05  1202.69  1435.46
eigval :     1502.33  2238.21  2664.08  2997.32  3019.19  3622.72

   temp. (K)  partition function   enthalpy   heat capacity  entropy
                                   cal/mol     cal/K/mol   cal/K/mol   J/K/mol
 298.15  VIB   37.0                 2186.142     12.314     13.508
         ROT  0.627E+05              888.752      2.981     24.933
         INT  0.232E+07             3074.894     15.295     38.441
         TR   0.428E+27             1481.254      4.968     38.080
         TOT                        4556.1484    20.2634    76.5213   320.1650

       T/K    H(0)-H(T)+PV         H(T)/Eh          T*S/Eh         G(T)/Eh
   ------------------------------------------------------------------------
    298.15    0.726068E-02    0.583697E-01    0.363577E-01    0.220120E-01
   ------------------------------------------------------------------------

         :::::::::::::::::::::::::::::::::::::::::::::::::::::
         ::                  THERMODYNAMIC                  ::
         :::::::::::::::::::::::::::::::::::::::::::::::::::::
         :: total free energy         -13.499222282911 Eh   ::
         ::.................................................::
         :: total energy              -13.521234286561 Eh   ::
         :: zero point energy           0.051109040627 Eh   ::
         :: G(RRHO) w/o ZPVE           -0.029097036977 Eh   ::
         :: G(RRHO) contrib.            0.022012003650 Eh   ::
         :::::::::::::::::::::::::::::::::::::::::::::::::::::

           -------------------------------------------------
          | TOTAL ENERGY              -13.521234286561 Eh   |
          | TOTAL ENTHALPY            -13.462864561274 Eh   |
          | TOTAL FREE ENERGY         -13.499222282911 Eh   |
          | GRADIENT NORM               0.000360310522 Eh/α |
          | HOMO-LUMO GAP               3.628312336639 eV   |
           -------------------------------------------------

 * finished run on 2025/10/17 at 21:43:08.382
normal termination of xtb
