   * xtb version 6.7.1 (edcfbbe) compiled by 'albert@albert-system' on 2024-07-22

   ID    Z sym.   atoms
    1    7 N      1
    2    6 C      2, 3
    3    1 H      4, 5, 7, 8
    4    8 O      6

          program call               : xtb tb_lite_results_shiftn0p2_gp36_b0_rot90_complex.xyz --ohess --chrg -1 --alpb water
      * Solvation model:               ALPB
        Solvent                        water
        Solvent mass                       1.8000E+01 g/mol
          :  Hamiltonian                  GFN2-xTB          :
 * total energy  :   -13.5175351 Eh     change       -0.1301181E-10 Eh
 * total energy  :   -13.5208680 Eh     change       -0.3332871E-02 Eh
 * total energy  :   -13.5207596 Eh     change        0.1084104E-03 Eh
 * total energy  :   -13.5211178 Eh     change       -0.3582535E-03 Eh
 * total energy  :   -13.5211621 Eh     change       -0.4427084E-04 Eh
 * total energy  :   -13.5212231 Eh     change       -0.6104833E-04 Eh
 * total energy  :   -13.5212593 Eh     change       -0.3614616E-04 Eh
 * total energy  :   -13.5212861 Eh     change       -0.2676652E-04 Eh
 * total energy  :   -13.5212994 Eh     change       -0.1336249E-04 Eh
 * total energy  :   -13.5213153 Eh     change       -0.1589551E-04 Eh
 * total energy  :   -13.5213294 Eh     change       -0.1406942E-04 Eh
 * total energy  :   -13.5213436 Eh     change       -0.1417941E-04 Eh
 * total energy  :   -13.5213478 Eh     change       -0.4266722E-05 Eh
 * total energy  :   -13.5213498 Eh     change       -0.1948234E-05 Eh
 * total energy  :   -13.5213540 Eh     change       -0.4202778E-05 Eh
   *** GEOMETRY OPTIMIZATION CONVERGED AFTER 15 ITERATIONS ***

 final structure:
================
8
 xtb: 6.7.1 (edcfbbe)
N           -8.54618342537689       -3.51209160454628       -1.85443282161918
C           -7.67938783207485       -2.70559902499363       -1.80072187790421
C           -6.69889968348456       -1.80953298388079       -1.75182405068764
H           -5.73450862541332       -2.06214467643619       -1.33937239971450
H           -6.83453724420048       -0.81475169301379       -2.14757823430685
O          -10.44145083069444       -3.73632446738095        0.00221805383820
H           -9.75937757419277       -3.64937570057624       -0.73018817742669
H           -9.93730942688385       -3.97429316168000        0.78654494462669

          :  Hamiltonian                  GFN2-xTB          :
         :: gradient norm              0.000794529180 Eh/a0 ::
         :: HOMO-LUMO gap              3.609776746867 eV    ::
         :: SCC energy               -13.712496899149 Eh    ::
         :: -> dispersion             -0.003261412337 Eh    ::
         :: -> Gsolv                  -0.105912994806 Eh    ::
         :: repulsion energy           0.191142916532 Eh    ::

    * Orbital Energies and Occupations

         #    Occupation            Energy/Eh            Energy/eV
      -------------------------------------------------------------
         1        2.0000           -0.6444183             -17.5355
         2        2.0000           -0.5610584             -15.2672
         3        2.0000           -0.5309891             -14.4489
         4        2.0000           -0.5216152             -14.1939
         5        2.0000           -0.4775068             -12.9936
         6        2.0000           -0.4556657             -12.3993
         7        2.0000           -0.4456522             -12.1268
         8        2.0000           -0.4092420             -11.1360
         9        2.0000           -0.3963212             -10.7844
        10        2.0000           -0.3771954             -10.2640
        11        2.0000           -0.3556923              -9.6789
        12        2.0000           -0.2704902              -7.3604 (HOMO)
        13                         -0.1378334              -3.7506 (LUMO)
        14                         -0.0718635              -1.9555
        15                          0.1373528               3.7376
        16                          0.1786368               4.8610
        17                          0.2950624               8.0291
        18                          0.3649893               9.9319
        19                          0.4144175              11.2769
        20                          1.2017468              32.7012
      -------------------------------------------------------------
                  HL-Gap            0.1326568 Eh            3.6098 eV

     #   Z          covCN         q      C6AA      α(0)
     1   7 N        0.923    -0.595    36.298     8.706
     2   6 C        1.891     0.055    29.718     8.804
     3   6 C        2.833    -0.239    34.422     9.614
     4   1 H        0.926    -0.070     4.612     3.358
     5   1 H        0.926    -0.071     4.658     3.375
     6   8 O        1.603    -0.709    27.963     7.137
     7   1 H        0.810     0.297     0.729     1.341
     8   1 H        0.805     0.332     0.631     1.248

Wiberg/Mayer (AO) data.
largest (>0.10) Wiberg bond orders for each atom

     #   Z sym  total        # sym  WBO       # sym  WBO       # sym  WBO
 ---------------------------------------------------------------------------
     1   7 N    2.834 --     2 C    2.368     3 C    0.269
     2   6 C    3.944 --     1 N    2.368     3 C    1.548
     3   6 C    3.745 --     2 C    1.548     4 H    0.955     5 H    0.955
                             1 N    0.269
     4   1 H    0.995 --     3 C    0.955
     5   1 H    0.995 --     3 C    0.955
     6   8 O    1.748 --     8 H    0.889     7 H    0.803
     7   1 H    0.912 --     6 O    0.803
     8   1 H    0.890 --     6 O    0.889
 ---------------------------------------------------------------------------

molecular dipole:
                 x           y           z       tot (Debye)
 q only:       15.791       5.331       3.236
   full:       16.354       5.646       3.257      44.747

 projected vibrational frequencies (cm⁻¹)
eigval :       -0.00    -0.00    -0.00     0.00     0.00     0.00
eigval :      -64.85    60.18   131.68   153.67   245.34   370.63
eigval :      505.75   527.06   791.25   949.60  1205.70  1434.17
eigval :     1507.07  2235.83  2636.85  3008.78  3029.32  3614.00

   temp. (K)  partition function   enthalpy   heat capacity  entropy
                                   cal/mol     cal/K/mol   cal/K/mol   J/K/mol
 298.15  VIB   34.4                 2219.450     12.653     14.113
         ROT  0.630E+05              888.752      2.981     24.943
         INT  0.217E+07             3108.202     15.634     39.057
         TR   0.428E+27             1481.254      4.968     38.080
         TOT                        4589.4562    20.6022    77.1366   322.7395

       T/K    H(0)-H(T)+PV         H(T)/Eh          T*S/Eh         G(T)/Eh
   ------------------------------------------------------------------------
    298.15    0.731376E-02    0.583604E-01    0.366501E-01    0.217103E-01
   ------------------------------------------------------------------------

         :::::::::::::::::::::::::::::::::::::::::::::::::::::
         ::                  THERMODYNAMIC                  ::
         :::::::::::::::::::::::::::::::::::::::::::::::::::::
         :: total free energy         -13.499643685648 Eh   ::
         ::.................................................::
         :: total energy              -13.521353984463 Eh   ::
         :: zero point energy           0.051046623273 Eh   ::
         :: G(RRHO) w/o ZPVE           -0.029336324458 Eh   ::
         :: G(RRHO) contrib.            0.021710298815 Eh   ::
         :::::::::::::::::::::::::::::::::::::::::::::::::::::

           -------------------------------------------------
          | TOTAL ENERGY              -13.521353984463 Eh   |
          | TOTAL ENTHALPY            -13.462993597169 Eh   |
          | TOTAL FREE ENERGY         -13.499643685648 Eh   |
          | GRADIENT NORM               0.000794540111 Eh/α |
          | HOMO-LUMO GAP               3.609775662993 eV   |
           -------------------------------------------------

 * finished run on 2025/10/17 at 21:43:13.395
normal termination of xtb
