   * xtb version 6.7.1 (edcfbbe) compiled by 'albert@albert-system' on 2024-07-22

   ID    Z sym.   atoms
    1    1 H      1, 4, 7-9
    2    6 C      2, 5, 6
    3    8 O      3

          program call               : xtb xyz.xyz --alpb water --charge -1 --ohess
      * Solvation model:               ALPB
        Solvent                        water
        Solvent mass                       1.8000E+01 g/mol
          :  Hamiltonian                  GFN2-xTB          :
 * total energy  :   -13.2590946 Eh     change       -0.3475797E-10 Eh
 * total energy  :   -13.2613050 Eh     change       -0.2210395E-02 Eh
 * total energy  :   -13.2613978 Eh     change       -0.9279170E-04 Eh
 * total energy  :   -13.2614209 Eh     change       -0.2308241E-04 Eh
 * total energy  :   -13.2614327 Eh     change       -0.1180794E-04 Eh
 * total energy  :   -13.2614370 Eh     change       -0.4331779E-05 Eh
   *** GEOMETRY OPTIMIZATION CONVERGED AFTER 6 ITERATIONS ***

 final structure:
================
9
 xtb: 6.7.1 (edcfbbe)
H           -5.13716124963817       -2.51327989432755       -0.91131304551264
C           -4.22060289472730       -2.38902473032805       -2.88649191003824
O           -2.95787559236539       -2.23940587996674       -2.46843931659928
H           -6.77812499442167       -0.70481574148289       -1.18197430334109
C           -5.24602421555872       -1.98163361728339       -1.84882960680299
C           -6.12085795723587       -1.00239026848626       -1.98344322176214
H           -6.20593978831274       -0.45986210270495       -2.91141558743709
H           -4.43201845132303       -1.80600813522625       -3.83747804408306
H           -4.44910408322924       -3.47559271182911       -3.16816706908076

          :  Hamiltonian                  GFN2-xTB          :
         :: gradient norm              0.000780660213 Eh/a0 ::
         :: HOMO-LUMO gap              3.099837700912 eV    ::
         :: SCC energy               -13.419031985099 Eh    ::
         :: -> dispersion             -0.004721659899 Eh    ::
         :: -> Gsolv                  -0.120575489390 Eh    ::
         :: repulsion energy           0.157594991000 Eh    ::

    * Orbital Energies and Occupations

         #    Occupation            Energy/Eh            Energy/eV
      -------------------------------------------------------------
         1        2.0000           -0.6037372             -16.4285
         2        2.0000           -0.5949351             -16.1890
         3        2.0000           -0.5573141             -15.1653
         4        2.0000           -0.5333697             -14.5137
         5        2.0000           -0.4951655             -13.4741
         6        2.0000           -0.4718556             -12.8398
         7        2.0000           -0.4604687             -12.5300
         8        2.0000           -0.4323929             -11.7660
         9        2.0000           -0.4236788             -11.5289
        10        2.0000           -0.3913175             -10.6483
        11        2.0000           -0.3064443              -8.3388
        12        2.0000           -0.3053870              -8.3100 (HOMO)
        13                         -0.1914702              -5.2102 (LUMO)
        14                          0.1125807               3.0635
        15                          0.1255585               3.4166
        16                          0.1526392               4.1535
        17                          0.1798966               4.8952
        18                          0.2166866               5.8963
        19                          0.3096619               8.4263
        20                          0.4229848              11.5100
        21                          0.6334305              17.2365
      -------------------------------------------------------------
                  HL-Gap            0.1139169 Eh            3.0998 eV

     #   Z          covCN         q      C6AA      α(0)
     1   1 H        0.925     0.016     2.800     2.617
     2   6 C        3.662     0.186    17.878     6.066
     3   8 O        0.855    -0.876    33.988     7.816
     4   1 H        0.926     0.041     2.440     2.442
     5   6 C        2.883    -0.051    29.252     8.867
     6   6 C        2.835    -0.106    30.674     9.076
     7   1 H        0.926     0.025     2.659     2.550
     8   1 H        0.916    -0.112     6.015     3.836
     9   1 H        0.913    -0.123     6.430     3.966

Wiberg/Mayer (AO) data.
largest (>0.10) Wiberg bond orders for each atom

     #   Z sym  total        # sym  WBO       # sym  WBO       # sym  WBO
 ---------------------------------------------------------------------------
     1   1 H    1.000 --     5 C    0.969
     2   6 C    3.978 --     3 O    1.129     5 C    0.978     8 H    0.931
                             9 H    0.914
     3   8 O    1.312 --     2 C    1.129
     4   1 H    0.998 --     6 C    0.975
     5   6 C    3.982 --     6 C    1.973     2 C    0.978     1 H    0.969
     6   6 C    3.987 --     5 C    1.973     7 H    0.976     4 H    0.975
     7   1 H    0.999 --     6 C    0.976
     8   1 H    0.987 --     2 C    0.931
     9   1 H    0.985 --     2 C    0.914
 ---------------------------------------------------------------------------

molecular dipole:
                 x           y           z       tot (Debye)
 q only:        6.146       4.294       4.937
   full:        5.957       4.214       4.812      22.216

 projected vibrational frequencies (cm⁻¹)
eigval :       -0.00    -0.00    -0.00     0.00     0.00     0.00
eigval :       85.33   315.41   402.95   651.77   858.30   901.65
eigval :      943.89  1017.24  1071.98  1116.26  1253.57  1269.62
eigval :     1352.36  1405.18  1488.19  1699.30  2170.46  2405.81
eigval :     3032.78  3072.12  3092.40

   temp. (K)  partition function   enthalpy   heat capacity  entropy
                                   cal/mol     cal/K/mol   cal/K/mol   J/K/mol
 298.15  VIB   4.93                 1194.068      9.008      7.098
         ROT  0.363E+05              888.752      2.981     23.849
         INT  0.179E+06             2082.821     11.989     30.947
         TR   0.417E+27             1481.254      4.968     38.029
         TOT                        3564.0747    16.9567    68.9756   288.5939

       T/K    H(0)-H(T)+PV         H(T)/Eh          T*S/Eh         G(T)/Eh
   ------------------------------------------------------------------------
    298.15    0.567971E-02    0.731284E-01    0.327725E-01    0.403558E-01
   ------------------------------------------------------------------------

         :::::::::::::::::::::::::::::::::::::::::::::::::::::
         ::                  THERMODYNAMIC                  ::
         :::::::::::::::::::::::::::::::::::::::::::::::::::::
         :: total free energy         -13.221081149547 Eh   ::
         ::.................................................::
         :: total energy              -13.261436993506 Eh   ::
         :: zero point energy           0.067448664239 Eh   ::
         :: G(RRHO) w/o ZPVE           -0.027092820281 Eh   ::
         :: G(RRHO) contrib.            0.040355843958 Eh   ::
         :::::::::::::::::::::::::::::::::::::::::::::::::::::

           -------------------------------------------------
          | TOTAL ENERGY              -13.261436993506 Eh   |
          | TOTAL ENTHALPY            -13.188308614774 Eh   |
          | TOTAL FREE ENERGY         -13.221081149547 Eh   |
          | GRADIENT NORM               0.000780590979 Eh/α |
          | HOMO-LUMO GAP               3.099835584971 eV   |
           -------------------------------------------------

 * finished run on 2025/10/18 at 01:05:35.276
