   * xtb version 6.7.1 (edcfbbe) compiled by 'albert@albert-system' on 2024-07-22

   ID    Z sym.   atoms
    1    8 O      1, 2

          program call               : xtb xyz.xyz --alpb water --charge -1 --ohess
      * Solvation model:               ALPB
        Solvent                        water
        Solvent mass                       1.8000E+01 g/mol
          :  Hamiltonian                  GFN2-xTB          :
 * total energy  :    -8.2899720 Eh     change        0.7105427E-14 Eh
 * total energy  :    -8.2927241 Eh     change       -0.2752127E-02 Eh
 * total energy  :    -8.2928111 Eh     change       -0.8695971E-04 Eh
 * total energy  :    -8.2928124 Eh     change       -0.1354201E-05 Eh
   *** GEOMETRY OPTIMIZATION CONVERGED AFTER 4 ITERATIONS ***

 final structure:
================
2
 xtb: 6.7.1 (edcfbbe)
O           -3.01044196636736       -4.53951403550879        2.75327518196087
O           -4.15966003363264       -5.19351396449121        2.57732081803913

          :  Hamiltonian                  GFN2-xTB          :
         :: gradient norm              0.000888783959 Eh/a0 ::
         :: HOMO-LUMO gap             10.097897561328 eV    ::
         :: SCC energy                -8.295096362437 Eh    ::
         :: -> dispersion             -0.000306034456 Eh    ::
         :: -> Gsolv                  -0.125157421877 Eh    ::
         :: repulsion energy           0.002283934942 Eh    ::

    * Orbital Energies and Occupations

         #    Occupation            Energy/Eh            Energy/eV
      -------------------------------------------------------------
         1        2.0000           -0.6587876             -17.9265
         2        2.0000           -0.6232440             -16.9593
         3        2.0000           -0.5109804             -13.9045
         4        2.0000           -0.4877257             -13.2717
         5        2.0000           -0.4877257             -13.2717
         6        1.5000           -0.3440144              -9.3611
         7        1.5000           -0.3440144              -9.3611 (HOMO)
         8                          0.0270765               0.7368 (LUMO)
      -------------------------------------------------------------
                  HL-Gap            0.3710909 Eh           10.0979 eV

     #   Z          covCN         q      C6AA      α(0)
     1   8 O        0.967    -0.500    23.724     6.533
     2   8 O        0.967    -0.500    23.724     6.533

Wiberg/Mayer (AO) data.
largest (>0.10) Wiberg bond orders for each atom

     #   Z sym  total        # sym  WBO       # sym  WBO       # sym  WBO
 ---------------------------------------------------------------------------
     1   8 O    1.250 --     2 O    1.250
     2   8 O    1.250 --     1 O    1.250
 ---------------------------------------------------------------------------

molecular dipole:
                 x           y           z       tot (Debye)
 q only:        6.775       9.196      -5.037
   full:        6.775       9.196      -5.037      31.730

   temp. (K)  partition function   enthalpy   heat capacity  entropy
                                   cal/mol     cal/K/mol   cal/K/mol   J/K/mol
 298.15  VIB   1.00                    5.970      0.130      0.023
         ROT   87.5                  592.502      1.987     10.873
         INT   87.6                  598.472      2.117     10.896
         TR   0.175E+27             1481.254      4.968     36.305
         TOT                        2079.7255     7.0851    47.2015   197.4909

       T/K    H(0)-H(T)+PV         H(T)/Eh          T*S/Eh         G(T)/Eh
   ------------------------------------------------------------------------
    298.15    0.331425E-02    0.636664E-02    0.224269E-01   -0.160603E-01
   ------------------------------------------------------------------------

         :::::::::::::::::::::::::::::::::::::::::::::::::::::
         ::                  THERMODYNAMIC                  ::
         :::::::::::::::::::::::::::::::::::::::::::::::::::::
         :: total free energy          -8.308872719974 Eh   ::
         ::.................................................::
         :: total energy               -8.292812427078 Eh   ::
         :: zero point energy           0.003052388888 Eh   ::
         :: G(RRHO) w/o ZPVE           -0.019112681785 Eh   ::
         :: G(RRHO) contrib.           -0.016060292897 Eh   ::
         :::::::::::::::::::::::::::::::::::::::::::::::::::::

           -------------------------------------------------
          | TOTAL ENERGY               -8.292812427078 Eh   |
          | TOTAL ENTHALPY             -8.286445784617 Eh   |
          | TOTAL FREE ENERGY          -8.308872719974 Eh   |
          | GRADIENT NORM               0.000888781512 Eh/α |
          | HOMO-LUMO GAP              10.097897561326 eV   |
           -------------------------------------------------

 * finished run on 2025/10/18 at 05:02:52.613
