                         Program Version 5.0.4 -  RELEASE  -
|  1> !OPT PBE D3BJ def2-TZVP CPCM(water)
|  2>
|  3> *xyz -1 1
|  4> C     -3.231326   -2.264946    0.638379
|  5> C     -2.713820   -3.140046   -0.320772
|  6> C     -3.407338   -4.304333   -0.653235
|  7> C     -4.619591   -4.593222   -0.025502
|  8> C     -5.138547   -3.719227    0.933874
|  9> H     -1.770771   -2.906338   -0.802894
| 10> C     -4.442656   -2.557168    1.263175
| 11> H     -3.005195   -4.982975   -1.397614
| 12> H     -2.686497   -1.359943    0.892871
| 13> H     -6.083006   -3.949829    1.419110
| 14> S     -5.078422   -1.484273    2.440002
| 15> H     -5.166425   -5.495569   -0.276789
| 16> *
| 17>
| 18>                          ****END OF INPUT****
 Total Charge           Charge          ....   -1
 Multiplicity           Mult            ....    1
 Number of Electrons    NEL             ....   58
Dispersion correction           -0.013341077
FINAL SINGLE POINT ENERGY      -629.610683566088
Dispersion correction            ... done
Dispersion correction           -0.013261059
FINAL SINGLE POINT ENERGY      -629.613604655149
Dispersion correction            ... done
Dispersion correction           -0.013226277
FINAL SINGLE POINT ENERGY      -629.614070626889
Dispersion correction            ... done
FINAL SINGLE POINT ENERGY      -629.614093994297
Dispersion correction            ... done
Dispersion correction           -0.013225954
FINAL SINGLE POINT ENERGY      -629.614098707893
Dispersion correction            ... done
Dispersion correction           -0.013227176
FINAL SINGLE POINT ENERGY      -629.614099755210
Dispersion correction            ... done
                    ***********************HURRAY********************

CARTESIAN COORDINATES (ANGSTROEM)
---------------------------------
  C     -3.230487   -2.273536    0.631911
  C     -2.713909   -3.147357   -0.325875
  C     -3.398342   -4.319907   -0.670275
  C     -4.614001   -4.595910   -0.031617
  C     -5.131906   -3.723034    0.926392
  H     -1.763188   -2.908514   -0.809764
  C     -4.458375   -2.530303    1.293034
  H     -2.993136   -5.002748   -1.418833
  H     -2.681481   -1.363688    0.886571
  H     -6.081757   -3.956558    1.413527
  S     -5.109602   -1.431637    2.497959
  H     -5.167411   -5.504676   -0.282425

 Multiplicity           Mult            ....    1
 Number of Electrons    NEL             ....   58
 Basis Dimension        Dim             ....  253

ORBITAL ENERGIES
----------------

  NO   OCC          E(Eh)            E(eV)
   0   2.0000     -87.958308     -2393.4672
   1   2.0000      -9.896608      -269.3004
   2   2.0000      -9.874340      -268.6944
   3   2.0000      -9.874333      -268.6943
   4   2.0000      -9.868323      -268.5307
   5   2.0000      -9.867275      -268.5022
   6   2.0000      -9.867250      -268.5015
   7   2.0000      -7.584655      -206.3890
   8   2.0000      -5.606218      -152.5530
   9   2.0000      -5.600452      -152.3960
  10   2.0000      -5.598974      -152.3558
  11   2.0000      -0.761309       -20.7163
  12   2.0000      -0.672437       -18.2980
  13   2.0000      -0.657813       -17.9000
  14   2.0000      -0.573227       -15.5983
  15   2.0000      -0.525625       -14.3030
  16   2.0000      -0.497553       -13.5391
  17   2.0000      -0.435806       -11.8589
  18   2.0000      -0.385168       -10.4810
  19   2.0000      -0.381261       -10.3746
  20   2.0000      -0.354327        -9.6417
  21   2.0000      -0.327607        -8.9146
  22   2.0000      -0.322408        -8.7732
  23   2.0000      -0.281596        -7.6626
  24   2.0000      -0.267709        -7.2847
  25   2.0000      -0.239254        -6.5104
  26   2.0000      -0.218675        -5.9505
  27   2.0000      -0.156843        -4.2679
  28   2.0000      -0.149142        -4.0583
  29   0.0000      -0.030436        -0.8282
  30   0.0000      -0.023891        -0.6501
  31   0.0000       0.036631         0.9968
  32   0.0000       0.072361         1.9690
  33   0.0000       0.073076         1.9885

MULLIKEN ATOMIC CHARGES
-----------------------
   0 C :   -0.243091
   1 C :   -0.157737
   2 C :   -0.168525
   3 C :   -0.156792
   4 C :   -0.241828
   5 H :    0.121092
   6 C :    0.251342
   7 H :    0.124844
   8 H :    0.082504
   9 H :    0.082493
  10 S :   -0.815283
  11 H :    0.120979
Sum of atomic charges:   -1.0000000

LOEWDIN ATOMIC CHARGES
----------------------
   0 C :   -0.193838
   1 C :   -0.178650
   2 C :   -0.196741
   3 C :   -0.178632
   4 C :   -0.193654
   5 H :    0.146138
   6 C :   -0.490308
   7 H :    0.143236
   8 H :    0.136054
   9 H :    0.136127
  10 S :   -0.275853
  11 H :    0.146121

  Mayer bond orders larger than 0.100000
B(  0-C ,  1-C ) :   1.4119 B(  0-C ,  6-C ) :   1.2351 B(  0-C ,  8-H ) :   0.9835
B(  0-C , 10-S ) :   0.2061 B(  1-C ,  2-C ) :   1.3609 B(  1-C ,  5-H ) :   0.9645
B(  2-C ,  3-C ) :   1.3605 B(  2-C ,  7-H ) :   0.9670 B(  3-C ,  4-C ) :   1.4107
B(  3-C , 11-H ) :   0.9647 B(  4-C ,  6-C ) :   1.2351 B(  4-C ,  9-H ) :   0.9839
B(  4-C , 10-S ) :   0.2049 B(  6-C , 10-S ) :   0.9621

Dispersion correction           -0.013227513
FINAL SINGLE POINT ENERGY      -629.614099941667

DIPOLE MOMENT
-------------
                                X             Y             Z
Electronic contribution:     -1.20780       2.03512       2.23509
Nuclear contribution   :      2.49428      -4.20854      -4.61649
                        -----------------------------------------
Total Dipole Moment    :      1.28649      -2.17342      -2.38140
                        -----------------------------------------
Magnitude (a.u.)       :      3.47129
Magnitude (Debye)      :      8.82333

Rotational constants in cm-1:     0.190724     0.052492     0.041163
Rotational constants in MHz :  5717.765123  1573.675990  1234.037232

                             ****ORCA TERMINATED NORMALLY****
TOTAL RUN TIME: 0 days 0 hours 4 minutes 16 seconds 912 msec
