   * xtb version 6.7.1 (edcfbbe) compiled by 'albert@albert-system' on 2024-07-22

   ID    Z sym.   atoms
    1    6 C      1, 2, 6, 11, 12, 15
    2    1 H      3-5, 7, 8, 13, 14, 16-19, 21, 22
    3    8 O      9, 10, 20

          program call               : xtb tb_lite_results_shiftn0p05_gp484_b0_rot90_complex.xyz --ohess --chrg -1 --alpb water
      * Solvation model:               ALPB
        Solvent                        water
        Solvent mass                       1.8000E+01 g/mol
          :  Hamiltonian                  GFN2-xTB          :
 * total energy  :   -32.0198322 Eh     change       -0.1054730E-09 Eh
 * total energy  :   -32.0232042 Eh     change       -0.3371930E-02 Eh
 * total energy  :   -32.0234876 Eh     change       -0.2834873E-03 Eh
 * total energy  :   -32.0235927 Eh     change       -0.1050371E-03 Eh
 * total energy  :   -32.0237388 Eh     change       -0.1461635E-03 Eh
 * total energy  :   -32.0238194 Eh     change       -0.8055357E-04 Eh
 * total energy  :   -32.0238874 Eh     change       -0.6803186E-04 Eh
 * total energy  :   -32.0239196 Eh     change       -0.3216295E-04 Eh
 * total energy  :   -32.0239366 Eh     change       -0.1705366E-04 Eh
 * total energy  :   -32.0239479 Eh     change       -0.1127526E-04 Eh
 * total energy  :   -32.0239532 Eh     change       -0.5276589E-05 Eh
 * total energy  :   -32.0239569 Eh     change       -0.3687727E-05 Eh
   *** GEOMETRY OPTIMIZATION CONVERGED AFTER 12 ITERATIONS ***

 final structure:
================
22
 xtb: 6.7.1 (edcfbbe)
C           -5.32506363019652       -3.63893800091412        0.52541641670190
C           -6.51907582711704       -4.13201914246102        1.33006301342819
H           -2.08448549591759       -1.56315130245769        2.18952351072362
H           -1.60404398891443       -0.79379304733732        0.67405819397226
H           -3.05608362842733       -0.25152328388493        1.52084185297612
C           -7.38171150847536       -5.17442483929945        0.58613568973958
H           -6.19987701397552       -4.59915823814944        2.26521897480604
H           -7.18538618569221       -3.30403118681625        1.58747660515644
O           -7.10787594673492       -5.43532842163767       -0.60961023239385
O           -8.31405336695604       -5.69632907188892        1.23255411830602
C           -4.49150635621246       -2.61833560123313        1.29580862817828
C           -3.28721153942018       -2.13395841486158        0.49170268439552
H           -5.12474177811640       -1.76658062751367        1.55532112500412
H           -4.14885419916536       -3.07359343170256        2.22816094229189
C           -2.45364872684537       -1.12048903838550        1.26753507928916
H           -2.66902656572597       -2.99484957530922        0.22794857015147
H           -3.64057175698069       -1.68585668147091       -0.43947105801290
H           -4.71053403214812       -4.50086594211138        0.25230214361274
H           -5.69158275380741       -3.20489837347471       -0.40832129855100
O           -8.89753252255949       -7.38632097261393       -1.31060754730135
H           -8.21520766695607       -6.69168596872800       -1.17304296328289
H           -9.35421081200414       -7.42759383032210       -0.46281752041107

          :  Hamiltonian                  GFN2-xTB          :
         :: gradient norm              0.000252742420 Eh/a0 ::
         :: HOMO-LUMO gap              5.134190853701 eV    ::
         :: SCC energy               -32.358111854946 Eh    ::
         :: -> dispersion             -0.013280731099 Eh    ::
         :: -> Gsolv                  -0.110751121029 Eh    ::
         :: repulsion energy           0.334154967041 Eh    ::

    * Orbital Energies and Occupations

         #    Occupation            Energy/Eh            Energy/eV
      -------------------------------------------------------------
         1        2.0000           -0.6727711             -18.3070
       ...           ...                  ...                  ...
        16        2.0000           -0.4851195             -13.2008
        17        2.0000           -0.4795417             -13.0490
        18        2.0000           -0.4746330             -12.9154
        19        2.0000           -0.4546669             -12.3721
        20        2.0000           -0.4462995             -12.1444
        21        2.0000           -0.4353214             -11.8457
        22        2.0000           -0.4291256             -11.6771
        23        2.0000           -0.4277581             -11.6399
        24        2.0000           -0.4192689             -11.4089
        25        2.0000           -0.4183350             -11.3835
        26        2.0000           -0.3996000             -10.8737
        27        2.0000           -0.3830890             -10.4244
        28        2.0000           -0.3627310              -9.8704 (HOMO)
        29                         -0.1740531              -4.7362 (LUMO)
        30                          0.0611651               1.6644
        31                          0.1171140               3.1868
        32                          0.1174408               3.1957
        33                          0.1266199               3.4455
        34                          0.1394072               3.7935
        35                          0.1537471               4.1837
        36                          0.1602069               4.3595
        37                          0.1718306               4.6757
        38                          0.1741877               4.7399
        39                          0.1867923               5.0829
       ...                                ...                  ...
        49                          0.6091747              16.5765
      -------------------------------------------------------------
                  HL-Gap            0.1886779 Eh            5.1342 eV

     #   Z          covCN         q      C6AA      α(0)
     1   6 C        3.802    -0.047    21.420     6.589
     2   6 C        3.800    -0.092    22.264     6.718
     3   1 H        0.925     0.041     2.434     2.440
     4   1 H        0.925     0.047     2.357     2.401
     5   1 H        0.925     0.041     2.433     2.439
     6   6 C        2.685     0.362    20.866     7.475
     7   1 H        0.924     0.027     2.626     2.534
     8   1 H        0.924     0.028     2.615     2.529
     9   8 O        0.856    -0.646    27.269     7.001
    10   8 O        0.856    -0.654    27.483     7.029
    11   6 C        3.803    -0.061    21.669     6.627
    12   6 C        3.801    -0.056    21.585     6.615
    13   1 H        0.924     0.032     2.556     2.500
    14   1 H        0.924     0.032     2.557     2.501
    15   6 C        3.752    -0.114    22.732     6.799
    16   1 H        0.924     0.030     2.589     2.516
    17   1 H        0.924     0.030     2.586     2.515
    18   1 H        0.924     0.022     2.710     2.574
    19   1 H        0.924     0.024     2.673     2.557
    20   8 O        1.607    -0.681    27.204     7.039
    21   1 H        0.802     0.309     0.695     1.310
    22   1 H        0.805     0.326     0.648     1.264

Wiberg/Mayer (AO) data.
largest (>0.10) Wiberg bond orders for each atom

     #   Z sym  total        # sym  WBO       # sym  WBO       # sym  WBO
 ---------------------------------------------------------------------------
     1   6 C    3.996 --     2 C    1.011    11 C    1.005    18 H    0.978
                            19 H    0.977
     2   6 C    3.995 --     1 C    1.011     7 H    0.969     8 H    0.965
                             6 C    0.936
     3   1 H    0.998 --    15 C    0.988
     4   1 H    0.997 --    15 C    0.987
     5   1 H    0.998 --    15 C    0.988
     6   6 C    3.927 --    10 O    1.498     9 O    1.468     2 C    0.936
     7   1 H    0.999 --     2 C    0.969
     8   1 H    0.999 --     2 C    0.965
     9   8 O    1.823 --     6 C    1.468    10 O    0.209
    10   8 O    1.784 --     6 C    1.498     9 O    0.209
    11   6 C    3.996 --    12 C    1.007     1 C    1.005    13 H    0.977
                            14 H    0.977
    12   6 C    3.997 --    15 C    1.019    11 C    1.007    17 H    0.979
                            16 H    0.978
    13   1 H    0.999 --    11 C    0.977
    14   1 H    0.999 --    11 C    0.977
    15   6 C    3.995 --    12 C    1.019     5 H    0.988     3 H    0.988
                             4 H    0.987
    16   1 H    0.999 --    12 C    0.978
    17   1 H    0.999 --    12 C    0.979
    18   1 H    1.000 --     1 C    0.978
    19   1 H    0.999 --     1 C    0.977
    20   8 O    1.768 --    22 H    0.891    21 H    0.846
    21   1 H    0.905 --    20 O    0.846
    22   1 H    0.894 --    20 O    0.891
 ---------------------------------------------------------------------------

molecular dipole:
                 x           y           z       tot (Debye)
 q only:       15.187      11.461       0.343
   full:       15.229      11.632       0.610      48.733

 projected vibrational frequencies (cm⁻¹)
eigval :       -0.00    -0.00     0.00     0.00     0.00     0.00
eigval :       17.01    34.33    43.16    59.79   100.00   102.05
eigval :      123.18   163.79   233.24   251.84   257.75   318.44
eigval :      393.86   410.25   523.57   567.95   665.04   723.15
eigval :      764.92   794.36   867.19   904.91   946.89   965.95
eigval :     1061.82  1072.29  1098.69  1107.96  1133.39  1203.25
eigval :     1230.45  1246.73  1276.46  1284.17  1289.19  1345.64
eigval :     1347.85  1372.80  1406.16  1463.61  1492.96  1495.94
eigval :     1497.30  1501.19  1507.04  1531.59  1634.35  2939.58
eigval :     2949.35  2956.57  2960.00  2964.80  2971.77  2975.56
eigval :     2981.25  3029.99  3034.21  3041.96  3140.50  3590.84

   temp. (K)  partition function   enthalpy   heat capacity  entropy
                                   cal/mol     cal/K/mol   cal/K/mol   J/K/mol
 298.15  VIB  0.359E+06             6253.123     33.373     41.387
         ROT  0.913E+06              888.752      2.981     30.254
         INT  0.328E+12             7141.875     36.354     71.641
         TR   0.149E+28             1481.254      4.968     40.553
         TOT                        8623.1288    41.3219   112.1948   469.4229

       T/K    H(0)-H(T)+PV         H(T)/Eh          T*S/Eh         G(T)/Eh
   ------------------------------------------------------------------------
    298.15    0.137418E-01    0.196838E+00    0.533074E-01    0.143531E+00
   ------------------------------------------------------------------------

         :::::::::::::::::::::::::::::::::::::::::::::::::::::
         ::                  THERMODYNAMIC                  ::
         :::::::::::::::::::::::::::::::::::::::::::::::::::::
         :: total free energy         -31.880426290722 Eh   ::
         ::.................................................::
         :: total energy              -32.023956888890 Eh   ::
         :: zero point energy           0.183096117892 Eh   ::
         :: G(RRHO) w/o ZPVE           -0.039565519723 Eh   ::
         :: G(RRHO) contrib.            0.143530598169 Eh   ::
         :::::::::::::::::::::::::::::::::::::::::::::::::::::

           -------------------------------------------------
          | TOTAL ENERGY              -32.023956888890 Eh   |
          | TOTAL ENTHALPY            -31.827118940533 Eh   |
          | TOTAL FREE ENERGY         -31.880426290722 Eh   |
          | GRADIENT NORM               0.000252766262 Eh/α |
          | HOMO-LUMO GAP               5.134185689250 eV   |
           -------------------------------------------------

 * finished run on 2025/10/18 at 03:43:40.780
normal termination of xtb
