   * xtb version 6.7.1 (edcfbbe) compiled by 'albert@albert-system' on 2024-07-22

   ID    Z sym.   atoms
    1    6 C      1, 2, 6, 11, 12, 15
    2    1 H      3-5, 7, 8, 13, 14, 16-19
    3    8 O      9, 10

          program call               : xtb tb_lite_results_shiftn0p1_gp484_b0_rot90_solute.xyz --ohess --chrg -1
          :  Hamiltonian                  GFN2-xTB          :
 * total energy  :   -26.8206197 Eh     change       -0.7510081E-10 Eh
 * total energy  :   -26.8240101 Eh     change       -0.3390403E-02 Eh
 * total energy  :   -26.8247417 Eh     change       -0.7315518E-03 Eh
 * total energy  :   -26.8248323 Eh     change       -0.9068745E-04 Eh
 * total energy  :   -26.8248683 Eh     change       -0.3591514E-04 Eh
 * total energy  :   -26.8249167 Eh     change       -0.4847750E-04 Eh
 * total energy  :   -26.8249237 Eh     change       -0.7011331E-05 Eh
 * total energy  :   -26.8249276 Eh     change       -0.3876675E-05 Eh
   *** GEOMETRY OPTIMIZATION CONVERGED AFTER 8 ITERATIONS ***

 final structure:
================
19
 xtb: 6.7.1 (edcfbbe)
C           -5.29908147210651       -3.63973183359326        0.51496169991946
C           -6.49554083005732       -4.15144630469315        1.29940989132249
H           -2.08860785591331       -1.52501662701209        2.22425896241184
H           -1.59983737226278       -0.73970028125273        0.71947012142155
H           -3.07173440225479       -0.22616017121589        1.54992437739570
C           -7.38767480615776       -5.19205136383560        0.48195047536560
H           -6.17190748226791       -4.64980912119343        2.21832018904775
H           -7.14996779252845       -3.32208571453902        1.58622415241939
O           -7.05099994742521       -5.41048376833149       -0.68789066658548
O           -8.33340854642817       -5.66570613562641        1.12657730309468
C           -4.47281670669015       -2.62045993324284        1.29873033226165
C           -3.26813792234351       -2.11091666245255        0.51032699962579
H           -5.10896391820426       -1.77210862092997        1.56933630329789
H           -4.12442468251545       -3.07789045832519        2.22994608384176
C           -2.45562720515364       -1.08757708114692        1.29713859575048
H           -2.62816431041103       -2.95665876879168        0.24634011409867
H           -3.61502425391797       -1.65907062334178       -0.42236662487983
H           -4.67058689108933       -4.48924194498460        0.23704997140500
H           -5.65654505168642       -3.19132786990040       -0.41482419403049

          :  Hamiltonian                  GFN2-xTB          :
         :: gradient norm              0.000388342775 Eh/a0 ::
         :: HOMO-LUMO gap              5.332911902041 eV    ::
         :: SCC energy               -27.129640474218 Eh    ::
         :: -> dispersion             -0.011992421525 Eh    ::
         :: repulsion energy           0.304712854937 Eh    ::

    * Orbital Energies and Occupations

         #    Occupation            Energy/Eh            Energy/eV
      -------------------------------------------------------------
         1        2.0000           -0.5220341             -14.2053
       ...           ...                  ...                  ...
        12        2.0000           -0.3586679              -9.7599
        13        2.0000           -0.3427103              -9.3256
        14        2.0000           -0.3405388              -9.2665
        15        2.0000           -0.3274478              -8.9103
        16        2.0000           -0.3215219              -8.7491
        17        2.0000           -0.3036379              -8.2624
        18        2.0000           -0.2978807              -8.1057
        19        2.0000           -0.2943796              -8.0105
        20        2.0000           -0.2728084              -7.4235
        21        2.0000           -0.2694153              -7.3312
        22        2.0000           -0.1910117              -5.1977
        23        2.0000           -0.1763762              -4.7994
        24        2.0000           -0.1593899              -4.3372 (HOMO)
        25                          0.0365909               0.9957 (LUMO)
        26                          0.1776416               4.8339
        27                          0.2241717               6.1000
        28                          0.2267286               6.1696
        29                          0.2498664               6.7992
        30                          0.2570077               6.9935
        31                          0.2656449               7.2286
        32                          0.2896641               7.8822
        33                          0.2975403               8.0965
        34                          0.3154959               8.5851
        35                          0.3268861               8.8950
       ...                                ...                  ...
        43                          0.8815517              23.9882
      -------------------------------------------------------------
                  HL-Gap            0.1959808 Eh            5.3329 eV

     #   Z          covCN         q      C6AA      α(0)
     1   6 C        3.801    -0.045    21.384     6.584
     2   6 C        3.792    -0.093    22.292     6.724
     3   1 H        0.925     0.024     2.669     2.555
     4   1 H        0.925     0.017     2.783     2.609
     5   1 H        0.925     0.024     2.667     2.554
     6   6 C        2.677     0.366    20.794     7.462
     7   1 H        0.924    -0.007     3.185     2.791
     8   1 H        0.924    -0.008     3.193     2.795
     9   8 O        0.856    -0.597    26.051     6.843
    10   8 O        0.856    -0.603    26.186     6.861
    11   6 C        3.802    -0.054    21.539     6.608
    12   6 C        3.800    -0.050    21.479     6.599
    13   1 H        0.924     0.015     2.814     2.624
    14   1 H        0.924     0.014     2.819     2.626
    15   6 C        3.751    -0.095    22.369     6.745
    16   1 H        0.924     0.022     2.705     2.572
    17   1 H        0.924     0.022     2.697     2.568
    18   1 H        0.924     0.022     2.710     2.574
    19   1 H        0.924     0.026     2.649     2.545

Wiberg/Mayer (AO) data.
largest (>0.10) Wiberg bond orders for each atom

     #   Z sym  total        # sym  WBO       # sym  WBO       # sym  WBO
 ---------------------------------------------------------------------------
     1   6 C    3.993 --     2 C    1.012    11 C    1.001    18 H    0.978
                            19 H    0.977
     2   6 C    3.963 --     1 C    1.012     7 H    0.977     8 H    0.975
                             6 C    0.861
     3   1 H    0.999 --    15 C    0.989
     4   1 H    0.999 --    15 C    0.988
     5   1 H    0.999 --    15 C    0.989
     6   6 C    3.945 --     9 O    1.537    10 O    1.528     2 C    0.861
     7   1 H    1.000 --     2 C    0.977
     8   1 H    1.000 --     2 C    0.975
     9   8 O    1.846 --     6 C    1.537    10 O    0.230
    10   8 O    1.837 --     6 C    1.528     9 O    0.230
    11   6 C    3.995 --    12 C    1.006     1 C    1.001    14 H    0.978
                            13 H    0.978
    12   6 C    3.996 --    15 C    1.017    11 C    1.006    16 H    0.979
                            17 H    0.979
    13   1 H    1.000 --    11 C    0.978
    14   1 H    1.000 --    11 C    0.978
    15   6 C    3.998 --    12 C    1.017     5 H    0.989     3 H    0.989
                             4 H    0.988
    16   1 H    1.000 --    12 C    0.979
    17   1 H    0.999 --    12 C    0.979
    18   1 H    1.000 --     1 C    0.978
    19   1 H    0.999 --     1 C    0.977
 ---------------------------------------------------------------------------

molecular dipole:
                 x           y           z       tot (Debye)
 q only:       14.061      10.017      -0.629
   full:       14.312      10.290      -0.446      44.818

 projected vibrational frequencies (cm⁻¹)
eigval :       -0.00    -0.00    -0.00     0.00     0.00     0.00
eigval :      -23.34    48.77    93.22   103.26   118.11   211.38
eigval :      231.87   310.48   399.44   516.11   579.16   653.11
eigval :      762.32   793.62   831.75   863.92   939.14   959.82
eigval :     1045.16  1055.95  1090.56  1103.15  1128.05  1205.96
eigval :     1217.65  1250.89  1274.51  1281.10  1285.63  1310.22
eigval :     1337.95  1365.93  1409.44  1486.05  1500.20  1504.04
eigval :     1506.38  1509.47  1513.64  1782.30  2926.09  2933.62
eigval :     2944.75  2955.14  2957.98  2967.87  2972.95  2984.45
eigval :     3005.43  3015.47  3022.76

   temp. (K)  partition function   enthalpy   heat capacity  entropy
                                   cal/mol     cal/K/mol   cal/K/mol   J/K/mol
 298.15  VIB   382.                 3750.992     23.976     23.623
         ROT  0.491E+06              888.752      2.981     29.021
         INT  0.188E+09             4639.744     26.957     52.643
         TR   0.120E+28             1481.254      4.968     40.120
         TOT                        6120.9981    31.9248    92.7637   388.1232

       T/K    H(0)-H(T)+PV         H(T)/Eh          T*S/Eh         G(T)/Eh
   ------------------------------------------------------------------------
    298.15    0.975443E-02    0.169833E+00    0.440750E-01    0.125758E+00
   ------------------------------------------------------------------------

         :::::::::::::::::::::::::::::::::::::::::::::::::::::
         ::                  THERMODYNAMIC                  ::
         :::::::::::::::::::::::::::::::::::::::::::::::::::::
         :: total free energy         -26.699169935835 Eh   ::
         ::.................................................::
         :: total energy              -26.824927619282 Eh   ::
         :: zero point energy           0.160078268837 Eh   ::
         :: G(RRHO) w/o ZPVE           -0.034320585390 Eh   ::
         :: G(RRHO) contrib.            0.125757683447 Eh   ::
         :::::::::::::::::::::::::::::::::::::::::::::::::::::

           -------------------------------------------------
          | TOTAL ENERGY              -26.824927619282 Eh   |
          | TOTAL ENTHALPY            -26.655094919019 Eh   |
          | TOTAL FREE ENERGY         -26.699169935835 Eh   |
          | GRADIENT NORM               0.000388339093 Eh/α |
          | HOMO-LUMO GAP               5.332908606805 eV   |
           -------------------------------------------------

 * finished run on 2025/10/18 at 03:43:38.482
normal termination of xtb
