   * xtb version 6.7.1 (edcfbbe) compiled by 'albert@albert-system' on 2024-07-22

   ID    Z sym.   atoms
    1    6 C      1, 2, 6, 11, 12, 15
    2    1 H      3-5, 7, 8, 13, 14, 16-19, 21, 22
    3    8 O      9, 10, 20

          program call               : xtb tb_lite_results_shiftn0p05_gp534_b0_rot270_complex.xyz --ohess --chrg -1 --alpb water
      * Solvation model:               ALPB
        Solvent                        water
        Solvent mass                       1.8000E+01 g/mol
          :  Hamiltonian                  GFN2-xTB          :
 * total energy  :   -32.0202172 Eh     change       -0.4766321E-10 Eh
 * total energy  :   -32.0235352 Eh     change       -0.3317979E-02 Eh
 * total energy  :   -32.0238975 Eh     change       -0.3622496E-03 Eh
 * total energy  :   -32.0239170 Eh     change       -0.1949929E-04 Eh
 * total energy  :   -32.0239713 Eh     change       -0.5432500E-04 Eh
 * total energy  :   -32.0239856 Eh     change       -0.1433294E-04 Eh
 * total energy  :   -32.0239973 Eh     change       -0.1172211E-04 Eh
 * total energy  :   -32.0240073 Eh     change       -0.1001158E-04 Eh
 * total energy  :   -32.0240176 Eh     change       -0.1022682E-04 Eh
 * total energy  :   -32.0240299 Eh     change       -0.1229841E-04 Eh
 * total energy  :   -32.0240431 Eh     change       -0.1318435E-04 Eh
 * total energy  :   -32.0240538 Eh     change       -0.1078797E-04 Eh
 * total energy  :   -32.0240624 Eh     change       -0.8541334E-05 Eh
 * total energy  :   -32.0240712 Eh     change       -0.8851464E-05 Eh
 * total energy  :   -32.0240836 Eh     change       -0.1241639E-04 Eh
 * total energy  :   -32.0240909 Eh     change       -0.7230856E-05 Eh
 * total energy  :   -32.0240932 Eh     change       -0.2361442E-05 Eh
   *** GEOMETRY OPTIMIZATION CONVERGED AFTER 17 ITERATIONS ***

 final structure:
================
22
 xtb: 6.7.1 (edcfbbe)
C           -5.32458049914809       -3.65628741430971        0.53404169991381
C           -6.49381953116730       -4.17417255553984        1.35914293856494
H           -2.06300860828033       -1.56046761694040        2.14346260487481
H           -1.64263438996608       -0.75821179522643        0.62699814989792
H           -3.08041115066221       -0.25988377877179        1.52346646478907
C           -7.42501693149966       -5.12442670956941        0.57599308123045
H           -6.14994935235150       -4.71977381527938        2.24122331989199
H           -7.12025110332463       -3.34824146428295        1.70775567717172
O           -7.24782153240102       -5.28446243846006       -0.64506192149291
O           -8.33195566688389       -5.68020236483155        1.24934215850788
C           -4.47317710881666       -2.65050301161871        1.30364764977819
C           -3.30280974136509       -2.13060542578909        0.47209376921613
H           -5.10486481141979       -1.81252201376959        1.60822760244295
H           -4.09437115065476       -3.12730468965678        2.21088218566569
C           -2.46769676923747       -1.11204603916169        1.23937223977279
H           -2.67559639971459       -2.97437884218276        0.17632055676775
H           -3.69278696372528       -1.67522569578571       -0.44083901905369
H           -4.71496906093223       -4.50774081735213        0.22060619582130
H           -5.72245876347699       -3.20064943489876       -0.37633980495199
O           -9.80345862378605       -7.17296523937414       -0.49258694414092
H           -9.33410651465217       -6.66827644452869        0.21096613414101
H           -9.30243083612148       -6.97664713699173       -1.29153409438082

          :  Hamiltonian                  GFN2-xTB          :
         :: gradient norm              0.000437184520 Eh/a0 ::
         :: HOMO-LUMO gap              5.135811922361 eV    ::
         :: SCC energy               -32.358249244787 Eh    ::
         :: -> dispersion             -0.013241325235 Eh    ::
         :: -> Gsolv                  -0.111066205769 Eh    ::
         :: repulsion energy           0.334156003928 Eh    ::

    * Orbital Energies and Occupations

         #    Occupation            Energy/Eh            Energy/eV
      -------------------------------------------------------------
         1        2.0000           -0.6729107             -18.3108
       ...           ...                  ...                  ...
        16        2.0000           -0.4847212             -13.1899
        17        2.0000           -0.4812258             -13.0948
        18        2.0000           -0.4738301             -12.8936
        19        2.0000           -0.4546617             -12.3720
        20        2.0000           -0.4461198             -12.1395
        21        2.0000           -0.4354987             -11.8505
        22        2.0000           -0.4291216             -11.6770
        23        2.0000           -0.4277809             -11.6405
        24        2.0000           -0.4191352             -11.4052
        25        2.0000           -0.4181292             -11.3779
        26        2.0000           -0.4000657             -10.8863
        27        2.0000           -0.3831099             -10.4250
        28        2.0000           -0.3629848              -9.8773 (HOMO)
        29                         -0.1742469              -4.7415 (LUMO)
        30                          0.0608824               1.6567
        31                          0.1169031               3.1811
        32                          0.1175909               3.1998
        33                          0.1288100               3.5051
        34                          0.1376501               3.7457
        35                          0.1535306               4.1778
        36                          0.1607991               4.3756
        37                          0.1717097               4.6725
        38                          0.1740695               4.7367
        39                          0.1869575               5.0874
       ...                                ...                  ...
        49                          0.6128479              16.6764
      -------------------------------------------------------------
                  HL-Gap            0.1887379 Eh            5.1358 eV

     #   Z          covCN         q      C6AA      α(0)
     1   6 C        3.802    -0.048    21.436     6.592
     2   6 C        3.800    -0.092    22.258     6.717
     3   1 H        0.925     0.041     2.433     2.439
     4   1 H        0.925     0.047     2.357     2.401
     5   1 H        0.925     0.041     2.439     2.442
     6   6 C        2.685     0.362    20.863     7.475
     7   1 H        0.924     0.026     2.639     2.541
     8   1 H        0.924     0.028     2.616     2.529
     9   8 O        0.856    -0.636    27.026     6.970
    10   8 O        0.856    -0.662    27.695     7.056
    11   6 C        3.803    -0.061    21.666     6.627
    12   6 C        3.801    -0.056    21.587     6.615
    13   1 H        0.924     0.032     2.565     2.504
    14   1 H        0.924     0.032     2.554     2.499
    15   6 C        3.752    -0.113    22.732     6.799
    16   1 H        0.924     0.030     2.580     2.512
    17   1 H        0.924     0.030     2.586     2.515
    18   1 H        0.924     0.022     2.705     2.572
    19   1 H        0.924     0.026     2.649     2.545
    20   8 O        1.607    -0.684    27.277     7.049
    21   1 H        0.802     0.308     0.697     1.311
    22   1 H        0.805     0.327     0.644     1.261

Wiberg/Mayer (AO) data.
largest (>0.10) Wiberg bond orders for each atom

     #   Z sym  total        # sym  WBO       # sym  WBO       # sym  WBO
 ---------------------------------------------------------------------------
     1   6 C    3.995 --     2 C    1.011    11 C    1.006    18 H    0.978
                            19 H    0.977
     2   6 C    3.995 --     1 C    1.011     7 H    0.970     8 H    0.965
                             6 C    0.935
     3   1 H    0.998 --    15 C    0.988
     4   1 H    0.997 --    15 C    0.987
     5   1 H    0.998 --    15 C    0.988
     6   6 C    3.927 --     9 O    1.519    10 O    1.447     2 C    0.935
     7   1 H    0.999 --     2 C    0.970
     8   1 H    0.999 --     2 C    0.965
     9   8 O    1.806 --     6 C    1.519    10 O    0.208
    10   8 O    1.804 --     6 C    1.447     9 O    0.208
    11   6 C    3.996 --    12 C    1.007     1 C    1.006    14 H    0.977
                            13 H    0.977
    12   6 C    3.997 --    15 C    1.019    11 C    1.007    16 H    0.979
                            17 H    0.978
    13   1 H    0.999 --    11 C    0.977
    14   1 H    0.999 --    11 C    0.977
    15   6 C    3.995 --    12 C    1.019     5 H    0.988     3 H    0.988
                             4 H    0.987
    16   1 H    0.999 --    12 C    0.979
    17   1 H    0.999 --    12 C    0.978
    18   1 H    1.000 --     1 C    0.978
    19   1 H    0.999 --     1 C    0.977
    20   8 O    1.766 --    22 H    0.891    21 H    0.843
    21   1 H    0.905 --    20 O    0.843
    22   1 H    0.893 --    20 O    0.891
 ---------------------------------------------------------------------------

molecular dipole:
                 x           y           z       tot (Debye)
 q only:       15.924      11.322      -0.436
   full:       16.102      11.485      -0.344      50.279

 projected vibrational frequencies (cm⁻¹)
eigval :       -0.00    -0.00    -0.00     0.00     0.00     0.00
eigval :        7.01    26.01    36.95    58.03    94.31   103.68
eigval :      121.48   186.06   218.35   221.32   231.96   334.47
eigval :      401.32   405.67   529.85   569.95   661.70   733.20
eigval :      764.86   794.57   867.21   905.31   947.11   965.89
eigval :     1061.58  1071.78  1099.49  1107.98  1133.39  1202.93
eigval :     1229.28  1246.43  1275.99  1284.07  1287.66  1341.93
eigval :     1347.40  1372.69  1406.40  1464.49  1492.90  1495.58
eigval :     1497.22  1501.19  1506.25  1528.53  1638.24  2939.34
eigval :     2949.10  2956.45  2962.08  2964.54  2971.48  2975.44
eigval :     2980.94  3029.77  3033.90  3041.62  3109.75  3598.13

   temp. (K)  partition function   enthalpy   heat capacity  entropy
                                   cal/mol     cal/K/mol   cal/K/mol   J/K/mol
 298.15  VIB  0.143E+07             6319.091     33.112     42.654
         ROT  0.824E+06              888.752      2.981     30.051
         INT  0.118E+13             7207.844     36.093     72.705
         TR   0.149E+28             1481.254      4.968     40.553
         TOT                        8689.0977    41.0607   113.2587   473.8742

       T/K    H(0)-H(T)+PV         H(T)/Eh          T*S/Eh         G(T)/Eh
   ------------------------------------------------------------------------
    298.15    0.138470E-01    0.196766E+00    0.538128E-01    0.142953E+00
   ------------------------------------------------------------------------

         :::::::::::::::::::::::::::::::::::::::::::::::::::::
         ::                  THERMODYNAMIC                  ::
         :::::::::::::::::::::::::::::::::::::::::::::::::::::
         :: total free energy         -31.881139935825 Eh   ::
         ::.................................................::
         :: total energy              -32.024093243196 Eh   ::
         :: zero point energy           0.182919194642 Eh   ::
         :: G(RRHO) w/o ZPVE           -0.039965887271 Eh   ::
         :: G(RRHO) contrib.            0.142953307371 Eh   ::
         :::::::::::::::::::::::::::::::::::::::::::::::::::::

           -------------------------------------------------
          | TOTAL ENERGY              -32.024093243196 Eh   |
          | TOTAL ENTHALPY            -31.827327089957 Eh   |
          | TOTAL FREE ENERGY         -31.881139935825 Eh   |
          | GRADIENT NORM               0.000437318824 Eh/α |
          | HOMO-LUMO GAP               5.135818456042 eV   |
           -------------------------------------------------

 * finished run on 2025/10/18 at 03:43:33.982
normal termination of xtb
