   * xtb version 6.7.1 (edcfbbe) compiled by 'albert@albert-system' on 2024-07-22

   ID    Z sym.   atoms
    1    6 C      1, 2, 6, 11, 12, 15
    2    1 H      3-5, 7, 8, 13, 14, 16-19, 21, 22
    3    8 O      9, 10, 20

          program call               : xtb tb_lite_results_shiftn0p1_gp484_b0_rot90_complex.xyz --ohess --chrg -1 --alpb water
      * Solvation model:               ALPB
        Solvent                        water
        Solvent mass                       1.8000E+01 g/mol
          :  Hamiltonian                  GFN2-xTB          :
 * total energy  :   -32.0195908 Eh     change       -0.1079599E-09 Eh
 * total energy  :   -32.0232645 Eh     change       -0.3673729E-02 Eh
 * total energy  :   -32.0235633 Eh     change       -0.2987841E-03 Eh
 * total energy  :   -32.0236457 Eh     change       -0.8242684E-04 Eh
 * total energy  :   -32.0237753 Eh     change       -0.1295455E-03 Eh
 * total energy  :   -32.0238316 Eh     change       -0.5638066E-04 Eh
 * total energy  :   -32.0238865 Eh     change       -0.5486010E-04 Eh
 * total energy  :   -32.0239249 Eh     change       -0.3838081E-04 Eh
 * total energy  :   -32.0239407 Eh     change       -0.1587095E-04 Eh
 * total energy  :   -32.0239498 Eh     change       -0.9016305E-05 Eh
 * total energy  :   -32.0239554 Eh     change       -0.5596791E-05 Eh
 * total energy  :   -32.0239577 Eh     change       -0.2319653E-05 Eh
 * total energy  :   -32.0239619 Eh     change       -0.4209784E-05 Eh
   *** GEOMETRY OPTIMIZATION CONVERGED AFTER 13 ITERATIONS ***

 final structure:
================
22
 xtb: 6.7.1 (edcfbbe)
C           -5.31893491395099       -3.63660720785080        0.53097372236535
C           -6.51512507902579       -4.12497240250280        1.33530016374823
H           -2.07721809055518       -1.55813373225977        2.18769334101930
H           -1.59915357424602       -0.79012174299016        0.67083897635684
H           -3.04974532666765       -0.24697166262480        1.51939711599474
C           -7.37705173471646       -5.16936627597941        0.59325337866719
H           -6.19864435494526       -4.58845308629648        2.27320022372742
H           -7.18121481951335       -3.29525661320766        1.58760552084528
O           -7.10029534944721       -5.43528295140109       -0.60075167626352
O           -8.31260950836566       -5.68642417948991        1.23862758976784
C           -4.48599337360533       -2.61315191310055        1.29829174221008
C           -3.28249193167926       -2.13027647247994        0.49204516718414
H           -5.11976481576726       -1.76111128561523        1.55553340895961
H           -4.14258363737372       -3.06547899162148        2.23177494267735
C           -2.44780173888019       -1.11620657552821        1.26595746201740
H           -2.66480274581464       -2.99160379877535        0.22859639003553
H           -3.63669149739557       -1.68303324140030       -0.43920900264994
H           -4.70475327849030       -4.50037538092079        0.26301467009006
H           -5.68334796018820       -3.20653980915044       -0.40541306319310
O           -8.89143150915603       -7.38029063725268       -1.31887062474960
H           -8.20875778952771       -6.68785378470372       -1.17156410756299
H           -9.36030911577893       -7.42265009016447       -0.47770481869301

          :  Hamiltonian                  GFN2-xTB          :
         :: gradient norm              0.000464138640 Eh/a0 ::
         :: HOMO-LUMO gap              5.135100035960 eV    ::
         :: SCC energy               -32.358116354600 Eh    ::
         :: -> dispersion             -0.013277143186 Eh    ::
         :: -> Gsolv                  -0.110835660105 Eh    ::
         :: repulsion energy           0.334154463320 Eh    ::

    * Orbital Energies and Occupations

         #    Occupation            Energy/Eh            Energy/eV
      -------------------------------------------------------------
         1        2.0000           -0.6727296             -18.3059
       ...           ...                  ...                  ...
        16        2.0000           -0.4850999             -13.2002
        17        2.0000           -0.4795755             -13.0499
        18        2.0000           -0.4745871             -12.9142
        19        2.0000           -0.4546592             -12.3719
        20        2.0000           -0.4462876             -12.1441
        21        2.0000           -0.4352954             -11.8450
        22        2.0000           -0.4291130             -11.6768
        23        2.0000           -0.4277410             -11.6394
        24        2.0000           -0.4192682             -11.4089
        25        2.0000           -0.4183890             -11.3849
        26        2.0000           -0.3995572             -10.8725
        27        2.0000           -0.3830279             -10.4227
        28        2.0000           -0.3626938              -9.8694 (HOMO)
        29                         -0.1739826              -4.7343 (LUMO)
        30                          0.0612800               1.6675
        31                          0.1170287               3.1845
        32                          0.1174785               3.1968
        33                          0.1262796               3.4362
        34                          0.1390833               3.7846
        35                          0.1537281               4.1832
        36                          0.1602215               4.3598
        37                          0.1718750               4.6770
        38                          0.1741517               4.7389
        39                          0.1867839               5.0826
       ...                                ...                  ...
        49                          0.6094094              16.5829
      -------------------------------------------------------------
                  HL-Gap            0.1887113 Eh            5.1351 eV

     #   Z          covCN         q      C6AA      α(0)
     1   6 C        3.802    -0.047    21.420     6.589
     2   6 C        3.800    -0.092    22.264     6.718
     3   1 H        0.925     0.041     2.434     2.440
     4   1 H        0.925     0.047     2.357     2.401
     5   1 H        0.925     0.041     2.433     2.439
     6   6 C        2.685     0.362    20.866     7.475
     7   1 H        0.924     0.027     2.626     2.534
     8   1 H        0.924     0.028     2.615     2.529
     9   8 O        0.856    -0.646    27.271     7.002
    10   8 O        0.856    -0.654    27.483     7.029
    11   6 C        3.803    -0.061    21.669     6.627
    12   6 C        3.801    -0.056    21.585     6.615
    13   1 H        0.924     0.032     2.556     2.500
    14   1 H        0.924     0.032     2.556     2.500
    15   6 C        3.752    -0.114    22.732     6.799
    16   1 H        0.924     0.030     2.589     2.516
    17   1 H        0.924     0.030     2.586     2.515
    18   1 H        0.924     0.022     2.710     2.574
    19   1 H        0.924     0.024     2.673     2.557
    20   8 O        1.607    -0.681    27.207     7.040
    21   1 H        0.802     0.309     0.695     1.310
    22   1 H        0.805     0.326     0.647     1.263

Wiberg/Mayer (AO) data.
largest (>0.10) Wiberg bond orders for each atom

     #   Z sym  total        # sym  WBO       # sym  WBO       # sym  WBO
 ---------------------------------------------------------------------------
     1   6 C    3.996 --     2 C    1.011    11 C    1.005    18 H    0.978
                            19 H    0.977
     2   6 C    3.995 --     1 C    1.011     7 H    0.969     8 H    0.965
                             6 C    0.935
     3   1 H    0.998 --    15 C    0.988
     4   1 H    0.997 --    15 C    0.987
     5   1 H    0.998 --    15 C    0.988
     6   6 C    3.927 --    10 O    1.498     9 O    1.468     2 C    0.935
     7   1 H    0.999 --     2 C    0.969
     8   1 H    0.999 --     2 C    0.965
     9   8 O    1.823 --     6 C    1.468    10 O    0.209
    10   8 O    1.784 --     6 C    1.498     9 O    0.209
    11   6 C    3.996 --    12 C    1.007     1 C    1.005    13 H    0.977
                            14 H    0.977
    12   6 C    3.997 --    15 C    1.019    11 C    1.007    17 H    0.979
                            16 H    0.978
    13   1 H    0.999 --    11 C    0.977
    14   1 H    0.999 --    11 C    0.977
    15   6 C    3.995 --    12 C    1.019     5 H    0.988     3 H    0.988
                             4 H    0.987
    16   1 H    0.999 --    12 C    0.978
    17   1 H    0.999 --    12 C    0.979
    18   1 H    1.000 --     1 C    0.978
    19   1 H    0.999 --     1 C    0.977
    20   8 O    1.768 --    22 H    0.891    21 H    0.846
    21   1 H    0.905 --    20 O    0.846
    22   1 H    0.894 --    20 O    0.891
 ---------------------------------------------------------------------------

molecular dipole:
                 x           y           z       tot (Debye)
 q only:       15.170      11.449       0.332
   full:       15.210      11.619       0.599      48.674

 projected vibrational frequencies (cm⁻¹)
eigval :       -0.00     0.00     0.00     0.00     0.00     0.00
eigval :       21.36    34.96    43.32    59.35    99.02   102.09
eigval :      123.23   163.13   232.89   256.32   264.49   318.35
eigval :      399.54   410.48   523.60   568.00   664.94   723.99
eigval :      764.92   794.33   867.19   904.85   946.85   965.87
eigval :     1061.72  1072.17  1098.66  1107.84  1133.32  1203.23
eigval :     1230.39  1246.66  1276.44  1284.12  1289.06  1345.61
eigval :     1347.93  1372.73  1406.07  1463.66  1492.90  1495.94
eigval :     1497.26  1501.13  1506.98  1531.41  1634.73  2939.64
eigval :     2949.45  2956.70  2960.00  2964.90  2971.82  2975.66
eigval :     2981.34  3030.28  3034.49  3042.28  3138.96  3589.65

   temp. (K)  partition function   enthalpy   heat capacity  entropy
                                   cal/mol     cal/K/mol   cal/K/mol   J/K/mol
 298.15  VIB  0.281E+06             6235.319     33.367     41.128
         ROT  0.916E+06              888.752      2.981     30.261
         INT  0.257E+12             7124.072     36.348     71.389
         TR   0.149E+28             1481.254      4.968     40.553
         TOT                        8605.3255    41.3163   111.9419   468.3651

       T/K    H(0)-H(T)+PV         H(T)/Eh          T*S/Eh         G(T)/Eh
   ------------------------------------------------------------------------
    298.15    0.137135E-01    0.196851E+00    0.531872E-01    0.143664E+00
   ------------------------------------------------------------------------

         :::::::::::::::::::::::::::::::::::::::::::::::::::::
         ::                  THERMODYNAMIC                  ::
         :::::::::::::::::::::::::::::::::::::::::::::::::::::
         :: total free energy         -31.880297906746 Eh   ::
         ::.................................................::
         :: total energy              -32.023961892179 Eh   ::
         :: zero point energy           0.183137752779 Eh   ::
         :: G(RRHO) w/o ZPVE           -0.039473767347 Eh   ::
         :: G(RRHO) contrib.            0.143663985432 Eh   ::
         :::::::::::::::::::::::::::::::::::::::::::::::::::::

           -------------------------------------------------
          | TOTAL ENERGY              -32.023961892179 Eh   |
          | TOTAL ENTHALPY            -31.827110680340 Eh   |
          | TOTAL FREE ENERGY         -31.880297906746 Eh   |
          | GRADIENT NORM               0.000464339687 Eh/α |
          | HOMO-LUMO GAP               5.135094936628 eV   |
           -------------------------------------------------

 * finished run on 2025/10/18 at 03:43:37.627
normal termination of xtb
