   * xtb version 6.7.1 (edcfbbe) compiled by 'albert@albert-system' on 2024-07-22

   ID    Z sym.   atoms
    1    6 C      1, 2, 6, 11, 12, 15
    2    1 H      3-5, 7, 8, 13, 14, 16-19, 21, 22
    3    8 O      9, 10, 20

          program call               : xtb tb_lite_results_shiftn0p15_gp534_b0_rot270_complex.xyz --ohess --chrg -1 --alpb water
      * Solvation model:               ALPB
        Solvent                        water
        Solvent mass                       1.8000E+01 g/mol
          :  Hamiltonian                  GFN2-xTB          :
 * total energy  :   -32.0196870 Eh     change       -0.9263346E-10 Eh
 * total energy  :   -32.0235654 Eh     change       -0.3878357E-02 Eh
 * total energy  :   -32.0239206 Eh     change       -0.3551809E-03 Eh
 * total energy  :   -32.0239391 Eh     change       -0.1849683E-04 Eh
 * total energy  :   -32.0239788 Eh     change       -0.3972628E-04 Eh
 * total energy  :   -32.0239915 Eh     change       -0.1269839E-04 Eh
 * total energy  :   -32.0240095 Eh     change       -0.1802625E-04 Eh
 * total energy  :   -32.0240211 Eh     change       -0.1158140E-04 Eh
 * total energy  :   -32.0240319 Eh     change       -0.1086174E-04 Eh
 * total energy  :   -32.0240414 Eh     change       -0.9475922E-05 Eh
 * total energy  :   -32.0240515 Eh     change       -0.1009426E-04 Eh
 * total energy  :   -32.0240627 Eh     change       -0.1116457E-04 Eh
 * total energy  :   -32.0240734 Eh     change       -0.1076666E-04 Eh
 * total energy  :   -32.0240798 Eh     change       -0.6341356E-05 Eh
 * total energy  :   -32.0240846 Eh     change       -0.4791618E-05 Eh
   *** GEOMETRY OPTIMIZATION CONVERGED AFTER 15 ITERATIONS ***

 final structure:
================
22
 xtb: 6.7.1 (edcfbbe)
C           -5.30860194980641       -3.65388837817168        0.54209507773718
C           -6.48323392835234       -4.16460951286632        1.36416836545459
H           -2.05883411344549       -1.54210922229303        2.15309559043108
H           -1.63450539508396       -0.74421736057586        0.63543281560320
H           -3.07804166042158       -0.24761871960613        1.52355408848601
C           -7.41610802126863       -5.11199393393155        0.57948452898942
H           -6.14521304498300       -4.71025794039092        2.24836575550831
H           -7.10678283389362       -3.33513545987426        1.70920506673403
O           -7.22730068944305       -5.28493476595523       -0.63782563304439
O           -8.33543752364307       -5.65296272148018        1.24791081914538
C           -4.46375604964471       -2.63968062039529        1.30780005192145
C           -3.28976889225607       -2.12321949991246        0.47920781791921
H           -5.09911800854751       -1.80063133367069        1.60162146135897
H           -4.08891136275701       -3.10772954840323        2.22121965240100
C           -2.46099149474574       -1.09861221909503        1.24550025362336
H           -2.65940265419848       -2.96752776074801        0.19193997207880
H           -3.67538160602331       -1.67390885982832       -0.43853992323382
H           -4.69609574201269       -4.50771795448115        0.24119342496639
H           -5.70083512218409       -3.20761690957313       -0.37533249876753
O           -9.81338440834752       -7.17275963235566       -0.46345460442791
H           -9.33657752272947       -6.65330929654036        0.22448159381455
H           -9.31668840504245       -7.00134801341606       -1.27073795151403

          :  Hamiltonian                  GFN2-xTB          :
         :: gradient norm              0.000582057347 Eh/a0 ::
         :: HOMO-LUMO gap              5.138224154203 eV    ::
         :: SCC energy               -32.358320097830 Eh    ::
         :: -> dispersion             -0.013233402229 Eh    ::
         :: -> Gsolv                  -0.111198741117 Eh    ::
         :: repulsion energy           0.334235516395 Eh    ::

    * Orbital Energies and Occupations

         #    Occupation            Energy/Eh            Energy/eV
      -------------------------------------------------------------
         1        2.0000           -0.6729223             -18.3111
       ...           ...                  ...                  ...
        16        2.0000           -0.4846746             -13.1887
        17        2.0000           -0.4813073             -13.0970
        18        2.0000           -0.4737332             -12.8909
        19        2.0000           -0.4546438             -12.3715
        20        2.0000           -0.4460988             -12.1390
        21        2.0000           -0.4354803             -11.8500
        22        2.0000           -0.4291530             -11.6778
        23        2.0000           -0.4277436             -11.6395
        24        2.0000           -0.4191135             -11.4047
        25        2.0000           -0.4181473             -11.3784
        26        2.0000           -0.4000563             -10.8861
        27        2.0000           -0.3830537             -10.4234
        28        2.0000           -0.3629641              -9.8768 (HOMO)
        29                         -0.1741380              -4.7385 (LUMO)
        30                          0.0608133               1.6548
        31                          0.1169054               3.1812
        32                          0.1176650               3.2018
        33                          0.1285715               3.4986
        34                          0.1374074               3.7390
        35                          0.1535773               4.1791
        36                          0.1608062               4.3758
        37                          0.1717780               4.6743
        38                          0.1740638               4.7365
        39                          0.1870526               5.0900
       ...                                ...                  ...
        49                          0.6134877              16.6938
      -------------------------------------------------------------
                  HL-Gap            0.1888261 Eh            5.1382 eV

     #   Z          covCN         q      C6AA      α(0)
     1   6 C        3.802    -0.048    21.436     6.592
     2   6 C        3.800    -0.092    22.259     6.717
     3   1 H        0.925     0.041     2.433     2.439
     4   1 H        0.925     0.047     2.356     2.401
     5   1 H        0.925     0.041     2.439     2.442
     6   6 C        2.685     0.362    20.862     7.475
     7   1 H        0.924     0.026     2.639     2.540
     8   1 H        0.924     0.028     2.616     2.529
     9   8 O        0.856    -0.636    27.025     6.970
    10   8 O        0.856    -0.662    27.693     7.055
    11   6 C        3.803    -0.061    21.666     6.627
    12   6 C        3.801    -0.056    21.587     6.615
    13   1 H        0.924     0.031     2.566     2.505
    14   1 H        0.924     0.032     2.553     2.499
    15   6 C        3.752    -0.113    22.732     6.799
    16   1 H        0.924     0.031     2.579     2.512
    17   1 H        0.924     0.030     2.587     2.515
    18   1 H        0.924     0.022     2.703     2.571
    19   1 H        0.924     0.026     2.650     2.546
    20   8 O        1.607    -0.684    27.291     7.051
    21   1 H        0.802     0.308     0.697     1.312
    22   1 H        0.805     0.328     0.643     1.259

Wiberg/Mayer (AO) data.
largest (>0.10) Wiberg bond orders for each atom

     #   Z sym  total        # sym  WBO       # sym  WBO       # sym  WBO
 ---------------------------------------------------------------------------
     1   6 C    3.995 --     2 C    1.011    11 C    1.006    18 H    0.978
                            19 H    0.977
     2   6 C    3.995 --     1 C    1.011     7 H    0.969     8 H    0.965
                             6 C    0.935
     3   1 H    0.998 --    15 C    0.988
     4   1 H    0.997 --    15 C    0.987
     5   1 H    0.998 --    15 C    0.988
     6   6 C    3.927 --     9 O    1.519    10 O    1.446     2 C    0.935
     7   1 H    0.999 --     2 C    0.969
     8   1 H    0.999 --     2 C    0.965
     9   8 O    1.806 --     6 C    1.519    10 O    0.208
    10   8 O    1.804 --     6 C    1.446     9 O    0.208
    11   6 C    3.996 --    12 C    1.007     1 C    1.006    14 H    0.977
                            13 H    0.977
    12   6 C    3.997 --    15 C    1.019    11 C    1.007    16 H    0.979
                            17 H    0.978
    13   1 H    0.999 --    11 C    0.977
    14   1 H    0.999 --    11 C    0.977
    15   6 C    3.995 --    12 C    1.019     5 H    0.988     3 H    0.988
                             4 H    0.987
    16   1 H    0.999 --    12 C    0.979
    17   1 H    0.999 --    12 C    0.978
    18   1 H    1.000 --     1 C    0.978
    19   1 H    0.999 --     1 C    0.977
    20   8 O    1.765 --    22 H    0.891    21 H    0.843
    21   1 H    0.905 --    20 O    0.843
    22   1 H    0.893 --    20 O    0.891
 ---------------------------------------------------------------------------

molecular dipole:
                 x           y           z       tot (Debye)
 q only:       15.913      11.289      -0.458
   full:       16.091      11.451      -0.370      50.207

 projected vibrational frequencies (cm⁻¹)
eigval :       -0.00    -0.00    -0.00     0.00     0.00     0.00
eigval :       18.37    26.69    40.25    57.81    93.58   103.69
eigval :      121.29   186.36   220.99   227.15   232.02   334.72
eigval :      404.29   405.88   530.61   569.22   661.49   737.43
eigval :      764.75   794.53   867.04   905.30   946.94   965.68
eigval :     1061.55  1071.62  1099.47  1107.65  1133.22  1202.91
eigval :     1229.16  1246.25  1275.98  1283.70  1287.59  1342.02
eigval :     1347.40  1372.67  1406.29  1464.31  1492.90  1495.54
eigval :     1497.23  1501.27  1506.15  1527.65  1639.22  2940.28
eigval :     2949.30  2956.76  2962.83  2964.79  2971.49  2975.73
eigval :     2981.28  3030.10  3034.11  3041.68  3105.36  3599.38

   temp. (K)  partition function   enthalpy   heat capacity  entropy
                                   cal/mol     cal/K/mol   cal/K/mol   J/K/mol
 298.15  VIB  0.500E+06             6288.056     33.170     41.648
         ROT  0.823E+06              888.752      2.981     30.050
         INT  0.412E+12             7176.808     36.151     71.698
         TR   0.149E+28             1481.254      4.968     40.553
         TOT                        8658.0619    41.1193   112.2509   469.6577

       T/K    H(0)-H(T)+PV         H(T)/Eh          T*S/Eh         G(T)/Eh
   ------------------------------------------------------------------------
    298.15    0.137975E-01    0.196782E+00    0.533340E-01    0.143448E+00
   ------------------------------------------------------------------------

         :::::::::::::::::::::::::::::::::::::::::::::::::::::
         ::                  THERMODYNAMIC                  ::
         :::::::::::::::::::::::::::::::::::::::::::::::::::::
         :: total free energy         -31.880636563441 Eh   ::
         ::.................................................::
         :: total energy              -32.024084583225 Eh   ::
         :: zero point energy           0.182984539121 Eh   ::
         :: G(RRHO) w/o ZPVE           -0.039536519336 Eh   ::
         :: G(RRHO) contrib.            0.143448019784 Eh   ::
         :::::::::::::::::::::::::::::::::::::::::::::::::::::

           -------------------------------------------------
          | TOTAL ENERGY              -32.024084583225 Eh   |
          | TOTAL ENTHALPY            -31.827302544177 Eh   |
          | TOTAL FREE ENERGY         -31.880636563441 Eh   |
          | GRADIENT NORM               0.000582145135 Eh/α |
          | HOMO-LUMO GAP               5.138219243496 eV   |
           -------------------------------------------------

 * finished run on 2025/10/18 at 03:43:30.222
normal termination of xtb
