   * xtb version 6.7.1 (edcfbbe) compiled by 'albert@albert-system' on 2024-07-22

   ID    Z sym.   atoms
    1    6 C      1, 2, 6, 11, 12, 15
    2    1 H      3-5, 7, 8, 13, 14, 16-19, 21, 22
    3    8 O      9, 10, 20

          program call               : xtb tb_lite_results_shiftn0p1_gp534_b0_rot270_complex.xyz --ohess --chrg -1 --alpb water
      * Solvation model:               ALPB
        Solvent                        water
        Solvent mass                       1.8000E+01 g/mol
          :  Hamiltonian                  GFN2-xTB          :
 * total energy  :   -32.0200651 Eh     change       -0.7402434E-10 Eh
 * total energy  :   -32.0235856 Eh     change       -0.3520467E-02 Eh
 * total energy  :   -32.0239238 Eh     change       -0.3382316E-03 Eh
 * total energy  :   -32.0239375 Eh     change       -0.1362089E-04 Eh
 * total energy  :   -32.0239792 Eh     change       -0.4170418E-04 Eh
 * total energy  :   -32.0239920 Eh     change       -0.1281630E-04 Eh
 * total energy  :   -32.0240039 Eh     change       -0.1191232E-04 Eh
 * total energy  :   -32.0240162 Eh     change       -0.1226229E-04 Eh
 * total energy  :   -32.0240274 Eh     change       -0.1123295E-04 Eh
 * total energy  :   -32.0240382 Eh     change       -0.1084258E-04 Eh
 * total energy  :   -32.0240489 Eh     change       -0.1062263E-04 Eh
 * total energy  :   -32.0240598 Eh     change       -0.1089901E-04 Eh
 * total energy  :   -32.0240687 Eh     change       -0.8922658E-05 Eh
 * total energy  :   -32.0240778 Eh     change       -0.9080062E-05 Eh
 * total energy  :   -32.0240850 Eh     change       -0.7218993E-05 Eh
 * total energy  :   -32.0240903 Eh     change       -0.5316314E-05 Eh
 * total energy  :   -32.0240936 Eh     change       -0.3263757E-05 Eh
 * total energy  :   -32.0240952 Eh     change       -0.1599516E-05 Eh
   *** GEOMETRY OPTIMIZATION CONVERGED AFTER 18 ITERATIONS ***

 final structure:
================
22
 xtb: 6.7.1 (edcfbbe)
C           -5.32349875786443       -3.65000800867025        0.53788257024612
C           -6.49216110196675       -4.16754989628012        1.36395961233496
H           -2.05577688761051       -1.55819770282036        2.14238547742985
H           -1.63713119114650       -0.75929082212299        0.62385617136277
H           -3.07143065078822       -0.25609046384472        1.52285817261985
C           -7.42056452924780       -5.12341903933957        0.58411016417407
H           -6.14781176462319       -4.70859225377261        2.24870428327801
H           -7.12129257446422       -3.34184812796516        1.70842259304334
O           -7.24506117268803       -5.28484230606465       -0.63670901236512
O           -8.32437209366874       -5.68138597757046        1.25946533225977
C           -4.46961295099158       -2.64640254481726        1.30792314575203
C           -3.30031576008079       -2.12772963407899        0.47406913353421
H           -5.09953376889782       -1.80800499067376        1.61479086118201
H           -4.08978091144343       -3.12506836230410        2.21368963542002
C           -2.46157486944821       -1.11022797864125        1.23863623152204
H           -2.67496073973972       -2.97231954788375        0.17680131379122
H           -3.69183860934831       -1.67178529856075       -0.43787129198655
H           -4.71544228595064       -4.50174992108802        0.22225787304858
H           -5.72199759805245       -3.19235503097898       -0.37117578220504
O           -9.79739529995260       -7.16658671904085       -0.48895179485880
H           -9.33285541026808       -6.66582778164718        0.22000626598558
H           -9.28716404096664       -6.96910979577727       -1.28132777076203

          :  Hamiltonian                  GFN2-xTB          :
         :: gradient norm              0.000995003203 Eh/a0 ::
         :: HOMO-LUMO gap              5.139016963550 eV    ::
         :: SCC energy               -32.358485587476 Eh    ::
         :: -> dispersion             -0.013243546361 Eh    ::
         :: -> Gsolv                  -0.110992977747 Eh    ::
         :: repulsion energy           0.334390426660 Eh    ::

    * Orbital Energies and Occupations

         #    Occupation            Energy/Eh            Energy/eV
      -------------------------------------------------------------
         1        2.0000           -0.6729229             -18.3112
       ...           ...                  ...                  ...
        16        2.0000           -0.4847668             -13.1912
        17        2.0000           -0.4812679             -13.0960
        18        2.0000           -0.4738873             -12.8951
        19        2.0000           -0.4546815             -12.3725
        20        2.0000           -0.4461169             -12.1395
        21        2.0000           -0.4355106             -11.8508
        22        2.0000           -0.4291020             -11.6765
        23        2.0000           -0.4277941             -11.6409
        24        2.0000           -0.4191649             -11.4061
        25        2.0000           -0.4182046             -11.3799
        26        2.0000           -0.4000391             -10.8856
        27        2.0000           -0.3830576             -10.4235
        28        2.0000           -0.3629444              -9.8762 (HOMO)
        29                         -0.1740891              -4.7372 (LUMO)
        30                          0.0609099               1.6574
        31                          0.1168198               3.1788
        32                          0.1175977               3.2000
        33                          0.1291059               3.5131
        34                          0.1380777               3.7573
        35                          0.1535981               4.1796
        36                          0.1608538               4.3771
        37                          0.1717476               4.6735
        38                          0.1740859               4.7371
        39                          0.1869506               5.0872
       ...                                ...                  ...
        49                          0.6134255              16.6922
      -------------------------------------------------------------
                  HL-Gap            0.1888552 Eh            5.1390 eV

     #   Z          covCN         q      C6AA      α(0)
     1   6 C        3.802    -0.048    21.435     6.591
     2   6 C        3.800    -0.092    22.259     6.717
     3   1 H        0.925     0.041     2.433     2.439
     4   1 H        0.925     0.047     2.357     2.401
     5   1 H        0.925     0.041     2.439     2.442
     6   6 C        2.685     0.362    20.862     7.475
     7   1 H        0.924     0.026     2.641     2.541
     8   1 H        0.924     0.028     2.617     2.530
     9   8 O        0.856    -0.636    27.026     6.970
    10   8 O        0.856    -0.662    27.700     7.056
    11   6 C        3.803    -0.061    21.666     6.627
    12   6 C        3.801    -0.056    21.587     6.615
    13   1 H        0.924     0.032     2.564     2.504
    14   1 H        0.924     0.032     2.555     2.500
    15   6 C        3.752    -0.113    22.732     6.799
    16   1 H        0.924     0.030     2.580     2.512
    17   1 H        0.924     0.030     2.586     2.515
    18   1 H        0.924     0.022     2.706     2.572
    19   1 H        0.924     0.026     2.649     2.545
    20   8 O        1.607    -0.683    27.266     7.047
    21   1 H        0.802     0.309     0.696     1.311
    22   1 H        0.805     0.327     0.645     1.261

Wiberg/Mayer (AO) data.
largest (>0.10) Wiberg bond orders for each atom

     #   Z sym  total        # sym  WBO       # sym  WBO       # sym  WBO
 ---------------------------------------------------------------------------
     1   6 C    3.995 --     2 C    1.011    11 C    1.006    18 H    0.978
                            19 H    0.977
     2   6 C    3.995 --     1 C    1.011     7 H    0.970     8 H    0.965
                             6 C    0.935
     3   1 H    0.998 --    15 C    0.988
     4   1 H    0.997 --    15 C    0.987
     5   1 H    0.998 --    15 C    0.988
     6   6 C    3.927 --     9 O    1.519    10 O    1.447     2 C    0.935
     7   1 H    0.999 --     2 C    0.970
     8   1 H    0.999 --     2 C    0.965
     9   8 O    1.806 --     6 C    1.519    10 O    0.208
    10   8 O    1.803 --     6 C    1.447     9 O    0.208
    11   6 C    3.996 --    12 C    1.007     1 C    1.006    14 H    0.977
                            13 H    0.977
    12   6 C    3.997 --    15 C    1.019    11 C    1.007    16 H    0.978
                            17 H    0.978
    13   1 H    0.999 --    11 C    0.977
    14   1 H    0.999 --    11 C    0.977
    15   6 C    3.996 --    12 C    1.019     5 H    0.988     3 H    0.988
                             4 H    0.987
    16   1 H    0.999 --    12 C    0.978
    17   1 H    0.999 --    12 C    0.978
    18   1 H    1.000 --     1 C    0.978
    19   1 H    0.999 --     1 C    0.977
    20   8 O    1.766 --    22 H    0.891    21 H    0.844
    21   1 H    0.905 --    20 O    0.844
    22   1 H    0.893 --    20 O    0.891
 ---------------------------------------------------------------------------

molecular dipole:
                 x           y           z       tot (Debye)
 q only:       15.915      11.321      -0.448
   full:       16.094      11.485      -0.354      50.262

 projected vibrational frequencies (cm⁻¹)
eigval :       -0.00    -0.00    -0.00    -0.00     0.00     0.00
eigval :      -18.65    24.67    35.10    57.56    94.66   102.95
eigval :      121.58   186.21   216.87   221.25   231.07   334.31
eigval :      393.75   405.37   529.49   569.77   661.89   732.30
eigval :      764.80   794.30   867.17   905.25   947.09   965.79
eigval :     1061.47  1071.78  1099.19  1108.21  1133.40  1202.89
eigval :     1229.24  1246.44  1275.75  1284.17  1287.60  1342.48
eigval :     1347.78  1372.47  1406.38  1464.50  1492.87  1495.58
eigval :     1497.15  1501.16  1506.19  1528.91  1639.77  2938.87
eigval :     2949.46  2956.71  2961.74  2964.91  2971.97  2975.67
eigval :     2981.22  3030.15  3034.36  3042.18  3117.33  3603.47

   temp. (K)  partition function   enthalpy   heat capacity  entropy
                                   cal/mol     cal/K/mol   cal/K/mol   J/K/mol
 298.15  VIB  0.624E+06             6315.625     33.101     41.825
         ROT  0.824E+06              888.752      2.981     30.052
         INT  0.514E+12             7204.377     36.081     71.876
         TR   0.149E+28             1481.254      4.968     40.553
         TOT                        8685.6312    41.0496   112.4296   470.4054

       T/K    H(0)-H(T)+PV         H(T)/Eh          T*S/Eh         G(T)/Eh
   ------------------------------------------------------------------------
    298.15    0.138414E-01    0.196790E+00    0.534189E-01    0.143371E+00
   ------------------------------------------------------------------------

         :::::::::::::::::::::::::::::::::::::::::::::::::::::
         ::                  THERMODYNAMIC                  ::
         :::::::::::::::::::::::::::::::::::::::::::::::::::::
         :: total free energy         -31.880723879870 Eh   ::
         ::.................................................::
         :: total energy              -32.024095163294 Eh   ::
         :: zero point energy           0.182948775440 Eh   ::
         :: G(RRHO) w/o ZPVE           -0.039577492016 Eh   ::
         :: G(RRHO) contrib.            0.143371283424 Eh   ::
         :::::::::::::::::::::::::::::::::::::::::::::::::::::

           -------------------------------------------------
          | TOTAL ENERGY              -32.024095163294 Eh   |
          | TOTAL ENTHALPY            -31.827304953535 Eh   |
          | TOTAL FREE ENERGY         -31.880723879870 Eh   |
          | GRADIENT NORM               0.000995032438 Eh/α |
          | HOMO-LUMO GAP               5.139012275805 eV   |
           -------------------------------------------------

 * finished run on 2025/10/18 at 03:43:26.697
normal termination of xtb
