                         Program Version 5.0.4 -  RELEASE  -
|  1> !OPT PBE D3BJ def2-TZVP CPCM(water)
|  2>
|  3> *xyz -1 1
|  4> C     -4.098943   -1.947129    1.963258
|  5> C     -3.777630   -2.414640    0.686440
|  6> N     -7.245024   -3.877446    2.680997
|  7> C     -5.233243   -2.413637    2.637519
|  8> H     -3.464407   -1.209514    2.449151
|  9> C     -4.594940   -3.358952    0.071033
| 10> H     -2.891793   -2.040856    0.177007
| 11> C     -5.730365   -3.833649    0.731973
| 12> H     -4.349488   -3.726925   -0.923959
| 13> C     -6.050402   -3.358135    2.021571
| 14> H     -6.354860   -4.572346    0.230674
| 15> O     -5.433959   -1.960733    3.726392
| 16> O     -7.909135   -4.716578    2.050893
| 17> O     -7.550609   -3.479938    3.809984
| 18> *
| 19>
| 20>                          ****END OF INPUT****
 Total Charge           Charge          ....   -1
 Multiplicity           Mult            ....    1
 Number of Electrons    NEL             ....   72
Dispersion correction           -0.015219064
FINAL SINGLE POINT ENERGY      -511.164189767217
Dispersion correction            ... done
Dispersion correction           -0.015103148
FINAL SINGLE POINT ENERGY      -511.182137858228
Dispersion correction            ... done
Dispersion correction           -0.015090520
FINAL SINGLE POINT ENERGY      -511.183838251028
Dispersion correction            ... done
FINAL SINGLE POINT ENERGY      -511.182125645543
FINAL SINGLE POINT ENERGY      -511.184117280571
FINAL SINGLE POINT ENERGY      -511.184155658586
Dispersion correction            ... done
Dispersion correction           -0.015091256
FINAL SINGLE POINT ENERGY      -511.184174507955
Dispersion correction            ... done
Dispersion correction           -0.015091173
FINAL SINGLE POINT ENERGY      -511.184175828517
Dispersion correction            ... done
                    ***********************HURRAY********************

CARTESIAN COORDINATES (ANGSTROEM)
---------------------------------
  C     -4.067769   -1.939725    1.937633
  C     -3.776839   -2.415330    0.681295
  N     -7.231645   -3.897670    2.622662
  C     -5.219820   -2.363852    2.716651
  H     -3.423878   -1.198345    2.417483
  C     -4.612231   -3.377288    0.058591
  H     -2.891264   -2.047973    0.155702
  C     -5.725686   -3.829344    0.733822
  H     -4.380069   -3.754412   -0.937779
  C     -6.052899   -3.356974    2.026908
  H     -6.387856   -4.567542    0.283411
  O     -5.421788   -1.884210    3.869478
  O     -7.897978   -4.761690    1.989635
  O     -7.595076   -3.516123    3.757441

 Multiplicity           Mult            ....    1
 Number of Electrons    NEL             ....   72
 Basis Dimension        Dim             ....  334

ORBITAL ENERGIES
----------------

  NO   OCC          E(Eh)            E(eV)
   0   2.0000     -18.748136      -510.1627
   1   2.0000     -18.745761      -510.0981
   2   2.0000     -18.690264      -508.5879
   3   2.0000     -14.174744      -385.7144
   4   2.0000      -9.935731      -270.3650
   5   2.0000      -9.912534      -269.7338
   6   2.0000      -9.884347      -268.9667
   7   2.0000      -9.883895      -268.9545
   8   2.0000      -9.873575      -268.6736
   9   2.0000      -9.869773      -268.5702
  10   2.0000      -1.089375       -29.6434
  11   2.0000      -0.922299       -25.0970
  12   2.0000      -0.895429       -24.3659
  13   2.0000      -0.766867       -20.8675
  14   2.0000      -0.710955       -19.3461
  15   2.0000      -0.650051       -17.6888
  16   2.0000      -0.599868       -16.3232
  17   2.0000      -0.527061       -14.3421
  18   2.0000      -0.507085       -13.7985
  19   2.0000      -0.467649       -12.7254
  20   2.0000      -0.451715       -12.2918
  21   2.0000      -0.438043       -11.9198
  22   2.0000      -0.418863       -11.3978
  23   2.0000      -0.397979       -10.8296
  24   2.0000      -0.375640       -10.2217
  25   2.0000      -0.353556        -9.6208
  26   2.0000      -0.341574        -9.2947
  27   2.0000      -0.320160        -8.7120
  28   2.0000      -0.301811        -8.2127
  29   2.0000      -0.282901        -7.6981
  30   2.0000      -0.252064        -6.8590
  31   2.0000      -0.249623        -6.7926
  32   2.0000      -0.229952        -6.2573
  33   2.0000      -0.217318        -5.9135
  34   2.0000      -0.176985        -4.8160
  35   2.0000      -0.173622        -4.7245
  36   0.0000      -0.097363        -2.6494
  37   0.0000      -0.019518        -0.5311
  38   0.0000      -0.006523        -0.1775
  39   0.0000       0.044216         1.2032
  40   0.0000       0.073307         1.9948

MULLIKEN ATOMIC CHARGES
-----------------------
   0 C :   -0.214088
   1 C :   -0.132905
   2 N :    0.339284
   3 C :    0.069623
   4 H :    0.097432
   5 C :   -0.174150
   6 H :    0.130024
   7 C :   -0.213048
   8 H :    0.130689
   9 C :    0.071433
  10 H :    0.131928
  11 O :   -0.460510
  12 O :   -0.408578
  13 O :   -0.367133
Sum of atomic charges:   -1.0000000

LOEWDIN ATOMIC CHARGES
----------------------
   0 C :   -0.156788
   1 C :   -0.160334
   2 N :   -0.041519
   3 C :   -0.381349
   4 H :    0.144067
   5 C :   -0.192351
   6 H :    0.150180
   7 C :   -0.146910
   8 H :    0.147193
   9 C :   -0.187323
  10 H :    0.152295
  11 O :   -0.063699
  12 O :   -0.146557
  13 O :   -0.116905

  Mayer bond orders larger than 0.100000
B(  0-C ,  1-C ) :   1.5285 B(  0-C ,  3-C ) :   1.2068 B(  0-C ,  4-H ) :   0.9668
B(  1-C ,  5-C ) :   1.2489 B(  1-C ,  6-H ) :   0.9581 B(  2-N ,  9-C ) :   1.1367
B(  2-N , 12-O ) :   1.5223 B(  2-N , 13-O ) :   1.5726 B(  3-C ,  9-C ) :   0.9693
B(  3-C , 11-O ) :   2.0001 B(  5-C ,  7-C ) :   1.5313 B(  5-C ,  8-H ) :   0.9674
B(  7-C ,  9-C ) :   1.2695 B(  7-C , 10-H ) :   0.9403 B( 12-O , 13-O ) :   0.1546

Dispersion correction           -0.015091070
FINAL SINGLE POINT ENERGY      -511.184176167368

DIPOLE MOMENT
-------------
                                X             Y             Z
Electronic contribution:     -4.12409      -1.16821       3.40583
Nuclear contribution   :      5.84205       0.99175      -6.04121
                        -----------------------------------------
Total Dipole Moment    :      1.71796      -0.17645      -2.63539
                        -----------------------------------------
Magnitude (a.u.)       :      3.15084
Magnitude (Debye)      :      8.00880

Rotational constants in cm-1:     0.078562     0.042064     0.027397
Rotational constants in MHz :  2355.219116  1261.047007   821.327621

                             ****ORCA TERMINATED NORMALLY****
TOTAL RUN TIME: 0 days 0 hours 12 minutes 17 seconds 73 msec
