   * xtb version 6.7.1 (edcfbbe) compiled by 'albert@albert-system' on 2024-07-22

   ID    Z sym.   atoms
    1    6 C      1, 2, 4, 6, 8, 10, 12
    2    1 H      3, 5, 7, 9, 11, 13, 14
    3    8 O      15

          program call               : xtb xyz.xyz --alpb water --charge -1 --ohess
      * Solvation model:               ALPB
        Solvent                        water
        Solvent mass                       1.8000E+01 g/mol
          :  Hamiltonian                  GFN2-xTB          :
 * total energy  :   -22.8633993 Eh     change       -0.5602629E-10 Eh
 * total energy  :   -22.8697792 Eh     change       -0.6379828E-02 Eh
 * total energy  :   -22.8704189 Eh     change       -0.6397607E-03 Eh
 * total energy  :   -22.8704576 Eh     change       -0.3870296E-04 Eh
 * total energy  :   -22.8704709 Eh     change       -0.1327224E-04 Eh
 * total energy  :   -22.8704747 Eh     change       -0.3806038E-05 Eh
   *** GEOMETRY OPTIMIZATION CONVERGED AFTER 6 ITERATIONS ***

 final structure:
================
15
 xtb: 6.7.1 (edcfbbe)
C           -4.19037338228244       -4.15350397566166       -3.25009546312277
C           -2.89297391436008       -4.63463818491074       -3.21859247983197
H           -3.78747536380273       -1.34339786164642       -1.44618466056438
C           -4.52717511607206       -2.96983097891655       -2.60559076401716
H           -4.96335273157876       -4.69264519820359       -3.78199427765919
C           -1.90856100244427       -3.93509754179430       -2.54199682306240
H           -2.65370827537812       -5.55939420454902       -3.72317061850403
C           -2.23012787038527       -2.74938229683595       -1.90303015026129
H           -0.89670651988849       -4.31004499913104       -2.51437647215241
C           -3.52840333041278       -2.27255844015145       -1.93648550764432
H           -1.46999407565143       -2.19313929454626       -1.37409038565725
C           -5.92568185974879       -2.38432041615834       -2.72606311660205
H           -6.65879148835479       -3.25320752492048       -2.82645912423676
H           -6.19252576946635       -1.91773782153780       -1.71697421164497
O           -6.04443230017364       -1.50937226103639       -3.73006994503905

          :  Hamiltonian                  GFN2-xTB          :
         :: gradient norm              0.000816348074 Eh/a0 ::
         :: HOMO-LUMO gap              2.556809601767 eV    ::
         :: SCC energy               -23.217289302616 Eh    ::
         :: -> dispersion             -0.012734678426 Eh    ::
         :: -> Gsolv                  -0.120828113991 Eh    ::
         :: repulsion energy           0.346814595119 Eh    ::

    * Orbital Energies and Occupations

         #    Occupation            Energy/Eh            Energy/eV
      -------------------------------------------------------------
         1        2.0000           -0.6326305             -17.2148
       ...           ...                  ...                  ...
         9        2.0000           -0.4920931             -13.3905
        10        2.0000           -0.4885504             -13.2941
        11        2.0000           -0.4712558             -12.8235
        12        2.0000           -0.4692100             -12.7679
        13        2.0000           -0.4604362             -12.5291
        14        2.0000           -0.4553876             -12.3917
        15        2.0000           -0.4386709             -11.9368
        16        2.0000           -0.4146214             -11.2824
        17        2.0000           -0.4120546             -11.2126
        18        2.0000           -0.3940730             -10.7233
        19        2.0000           -0.3840428             -10.4503
        20        2.0000           -0.3077405              -8.3740
        21        2.0000           -0.3065313              -8.3411 (HOMO)
        22                         -0.2125702              -5.7843 (LUMO)
        23                         -0.2096971              -5.7061
        24                         -0.0823802              -2.2417
        25                          0.1068113               2.9065
        26                          0.1209656               3.2916
        27                          0.1284342               3.4949
        28                          0.1582757               4.3069
        29                          0.1707541               4.6465
        30                          0.1863713               5.0714
        31                          0.2097918               5.7087
        32                          0.2155209               5.8646
       ...                                ...                  ...
        39                          0.6722340              18.2924
      -------------------------------------------------------------
                  HL-Gap            0.0939611 Eh            2.5568 eV

     #   Z          covCN         q      C6AA      α(0)
     1   6 C        2.925    -0.035    28.872     8.812
     2   6 C        2.919    -0.040    28.990     8.829
     3   1 H        0.925     0.008     2.929     2.676
     4   6 C        2.965    -0.017    28.431     8.746
     5   1 H        0.925     0.008     2.924     2.674
     6   6 C        2.920    -0.045    29.106     8.847
     7   1 H        0.926     0.040     2.445     2.445
     8   6 C        2.919    -0.040    28.991     8.830
     9   1 H        0.926     0.047     2.358     2.401
    10   6 C        2.925    -0.033    28.816     8.803
    11   1 H        0.926     0.040     2.452     2.449
    12   6 C        3.663     0.192    17.796     6.051
    13   1 H        0.915    -0.127     6.608     4.021
    14   1 H        0.914    -0.128     6.676     4.041
    15   8 O        0.855    -0.870    33.797     7.794

Wiberg/Mayer (AO) data.
largest (>0.10) Wiberg bond orders for each atom

     #   Z sym  total        # sym  WBO       # sym  WBO       # sym  WBO
 ---------------------------------------------------------------------------
     1   6 C    3.991 --     2 C    1.445     4 C    1.411     5 H    0.969
                             8 C    0.109
     2   6 C    3.990 --     1 C    1.445     6 C    1.437     7 H    0.970
                            10 C    0.110
     3   1 H    1.000 --    10 C    0.970
     4   6 C    3.978 --     1 C    1.411    10 C    1.409    12 C    0.963
                             6 C    0.110
     5   1 H    1.000 --     1 C    0.969
     6   6 C    3.990 --     2 C    1.437     8 C    1.434     9 H    0.970
                             4 C    0.110
     7   1 H    0.998 --     2 C    0.970
     8   6 C    3.990 --    10 C    1.449     6 C    1.434    11 H    0.970
                             1 C    0.109
     9   1 H    0.997 --     6 C    0.970
    10   6 C    3.991 --     8 C    1.449     4 C    1.409     3 H    0.970
                             2 C    0.110
    11   1 H    0.998 --     8 C    0.970
    12   6 C    3.976 --    15 O    1.132     4 C    0.963    13 H    0.925
                            14 H    0.922
    13   1 H    0.984 --    12 C    0.925
    14   1 H    0.983 --    12 C    0.922
    15   8 O    1.324 --    12 C    1.132
 ---------------------------------------------------------------------------

molecular dipole:
                 x           y           z       tot (Debye)
 q only:       11.556       3.201       6.570
   full:       11.327       3.133       6.751      34.448

 projected vibrational frequencies (cm⁻¹)
eigval :       -0.00    -0.00    -0.00     0.00     0.00     0.00
eigval :       45.45   123.85   297.86   318.58   363.49   468.94
eigval :      568.63   590.64   672.00   752.27   807.09   873.08
eigval :      890.71   918.25   921.22   981.20   983.70  1067.36
eigval :     1082.78  1117.91  1175.22  1189.37  1205.48  1246.88
eigval :     1288.89  1328.57  1358.01  1435.64  1469.58  1500.74
eigval :     1589.90  1598.48  2163.81  2375.54  3044.54  3048.80
eigval :     3067.21  3069.02  3087.68

   temp. (K)  partition function   enthalpy   heat capacity  entropy
                                   cal/mol     cal/K/mol   cal/K/mol   J/K/mol
 298.15  VIB   35.0                 2560.630     19.137     14.833
         ROT  0.286E+06              888.752      2.981     27.946
         INT  0.100E+08             3449.383     22.118     42.779
         TR   0.107E+28             1481.254      4.968     39.905
         TOT                        4930.6367    27.0863    82.6841   345.9501

       T/K    H(0)-H(T)+PV         H(T)/Eh          T*S/Eh         G(T)/Eh
   ------------------------------------------------------------------------
    298.15    0.785747E-02    0.121967E+00    0.392859E-01    0.826813E-01
   ------------------------------------------------------------------------

         :::::::::::::::::::::::::::::::::::::::::::::::::::::
         ::                  THERMODYNAMIC                  ::
         :::::::::::::::::::::::::::::::::::::::::::::::::::::
         :: total free energy         -22.787793399525 Eh   ::
         ::.................................................::
         :: total energy              -22.870474707697 Eh   ::
         :: zero point energy           0.114109698833 Eh   ::
         :: G(RRHO) w/o ZPVE           -0.031428390662 Eh   ::
         :: G(RRHO) contrib.            0.082681308172 Eh   ::
         :::::::::::::::::::::::::::::::::::::::::::::::::::::

           -------------------------------------------------
          | TOTAL ENERGY              -22.870474707697 Eh   |
          | TOTAL ENTHALPY            -22.748507539068 Eh   |
          | TOTAL FREE ENERGY         -22.787793399525 Eh   |
          | GRADIENT NORM               0.000816353239 Eh/α |
          | HOMO-LUMO GAP               2.556812279386 eV   |
           -------------------------------------------------

 * finished run on 2025/10/18 at 01:12:42.508
