   * xtb version 6.7.1 (edcfbbe) compiled by 'albert@albert-system' on 2024-07-22

   ID    Z sym.   atoms
    1    7 N      1
    2    6 C      2, 3
    3    1 H      4, 5

          program call               : xtb tb_lite_results_shiftn0p2_gp36_b0_rot90_solute.xyz --charge -1 --ohess
          :  Hamiltonian                  GFN2-xTB          :
 * total energy  :    -8.3203477 Eh     change       -0.5375256E-11 Eh
 * total energy  :    -8.3217425 Eh     change       -0.1394792E-02 Eh
 * total energy  :    -8.3217840 Eh     change       -0.4149537E-04 Eh
 * total energy  :    -8.3216786 Eh     change        0.1054187E-03 Eh
 * total energy  :    -8.3217799 Eh     change       -0.1013918E-03 Eh
 * total energy  :    -8.3217923 Eh     change       -0.1236500E-04 Eh
 * total energy  :    -8.3217925 Eh     change       -0.1501824E-06 Eh
   *** GEOMETRY OPTIMIZATION CONVERGED AFTER 7 ITERATIONS ***

 final structure:
================
5
 xtb: 6.7.1 (edcfbbe)
N           -8.63601427435221       -3.35139877892452       -1.80936281653877
C           -7.70475491411232       -2.62657127554020       -1.80470081057418
C           -6.64493998889618       -1.80437736528137       -1.79818529081475
H           -5.72812083792312       -2.06860789111629       -1.28182081735714
H           -6.66835015931108       -0.84732674186264       -2.30855930965976

          :  Hamiltonian                  GFN2-xTB          :
         :: gradient norm              0.000192472838 Eh/a0 ::
         :: HOMO-LUMO gap              3.636379420083 eV    ::
         :: SCC energy                -8.482417032583 Eh    ::
         :: -> dispersion             -0.002201809044 Eh    ::
         :: repulsion energy           0.160624574019 Eh    ::

    * Orbital Energies and Occupations

         #    Occupation            Energy/Eh            Energy/eV
      -------------------------------------------------------------
         1        2.0000           -0.3451642              -9.3924
         2        2.0000           -0.3194444              -8.6925
         3        2.0000           -0.2468333              -6.7167
         4        2.0000           -0.2383280              -6.4852
         5        2.0000           -0.1815680              -4.9407
         6        2.0000           -0.1637557              -4.4560
         7        2.0000           -0.1383253              -3.7640
         8        2.0000           -0.0555612              -1.5119 (HOMO)
         9                          0.0780733               2.1245 (LUMO)
        10                          0.1469068               3.9975
        11                          0.3726816              10.1412
        12                          0.5548451              15.0981
        13                          0.6051456              16.4669
        14                          1.4046124              38.2214
      -------------------------------------------------------------
                  HL-Gap            0.1336345 Eh            3.6364 eV

     #   Z          covCN         q      C6AA      α(0)
     1   7 N        0.911    -0.580    35.862     8.661
     2   6 C        1.891     0.045    29.977     8.843
     3   6 C        2.832    -0.259    35.054     9.702
     4   1 H        0.925    -0.103     5.665     3.722
     5   1 H        0.925    -0.103     5.668     3.723

Wiberg/Mayer (AO) data.
largest (>0.10) Wiberg bond orders for each atom

     #   Z sym  total        # sym  WBO       # sym  WBO       # sym  WBO
 ---------------------------------------------------------------------------
     1   7 N    2.791 --     2 C    2.451     3 C    0.282
     2   6 C    3.947 --     1 N    2.451     3 C    1.483
     3   6 C    3.673 --     2 C    1.483     5 H    0.954     4 H    0.954
                             1 N    0.282
     4   1 H    0.989 --     3 C    0.954
     5   1 H    0.989 --     3 C    0.954
 ---------------------------------------------------------------------------

molecular dipole:
                 x           y           z       tot (Debye)
 q only:       14.475       4.900       3.409
   full:       14.918       5.244       3.411      41.117

 projected vibrational frequencies (cm⁻¹)
eigval :       -0.00    -0.00    -0.00     0.00     0.00     0.00
eigval :     -270.15   387.55   493.58   955.85  1185.17  1443.71
eigval :     2283.13  2951.18  2966.74

   temp. (K)  partition function   enthalpy   heat capacity  entropy
                                   cal/mol     cal/K/mol   cal/K/mol   J/K/mol
 298.15  VIB   1.32                  388.065      3.499      1.855
         ROT  0.246E+04              888.752      2.981     18.498
         INT  0.325E+04             1276.817      6.480     20.353
         TR   0.245E+27             1481.254      4.968     36.973
         TOT                        2758.0710    11.4484    57.3266   239.8543

       T/K    H(0)-H(T)+PV         H(T)/Eh          T*S/Eh         G(T)/Eh
   ------------------------------------------------------------------------
    298.15    0.439527E-02    0.332526E-01    0.272377E-01    0.601489E-02
   ------------------------------------------------------------------------

         :::::::::::::::::::::::::::::::::::::::::::::::::::::
         ::                  THERMODYNAMIC                  ::
         :::::::::::::::::::::::::::::::::::::::::::::::::::::
         :: total free energy          -8.315777563715 Eh   ::
         ::.................................................::
         :: total energy               -8.321792458564 Eh   ::
         :: zero point energy           0.028857329052 Eh   ::
         :: G(RRHO) w/o ZPVE           -0.022842434203 Eh   ::
         :: G(RRHO) contrib.            0.006014894849 Eh   ::
         :::::::::::::::::::::::::::::::::::::::::::::::::::::

           -------------------------------------------------
          | TOTAL ENERGY               -8.321792458564 Eh   |
          | TOTAL ENTHALPY             -8.288539863594 Eh   |
          | TOTAL FREE ENERGY          -8.315777563715 Eh   |
          | GRADIENT NORM               0.000192453576 Eh/α |
          | HOMO-LUMO GAP               3.636379323650 eV   |
           -------------------------------------------------

 * finished run on 2025/10/17 at 21:45:19.698
