   * xtb version 6.7.1 (edcfbbe) compiled by 'albert@albert-system' on 2024-07-22

   ID    Z sym.   atoms
    1    6 C      1, 2, 5, 8
    2    8 O      3
    3    1 H      4, 6, 7, 9-14

          program call               : xtb xyz.xyz --charge -1 --ohess
          :  Hamiltonian                  GFN2-xTB          :
 * total energy  :   -17.3690692 Eh     change       -0.1780620E-09 Eh
 * total energy  :   -17.3717523 Eh     change       -0.2683139E-02 Eh
 * total energy  :   -17.3727624 Eh     change       -0.1010076E-02 Eh
 * total energy  :   -17.3729274 Eh     change       -0.1650410E-03 Eh
 * total energy  :   -17.3729787 Eh     change       -0.5130383E-04 Eh
 * total energy  :   -17.3729972 Eh     change       -0.1850331E-04 Eh
 * total energy  :   -17.3730191 Eh     change       -0.2188062E-04 Eh
 * total energy  :   -17.3730305 Eh     change       -0.1134380E-04 Eh
 * total energy  :   -17.3730345 Eh     change       -0.4047883E-05 Eh
   *** GEOMETRY OPTIMIZATION CONVERGED AFTER 9 ITERATIONS ***

 final structure:
================
14
 xtb: 6.7.1 (edcfbbe)
C           -3.77222277572632       -3.91843932588265       -2.81633228339022
C           -4.24716171918470       -2.41509951546878       -2.90877518074987
O           -3.29886258979088       -1.53464025070185       -2.78418127422238
H           -4.60038814003052       -4.61413889067419       -2.97491074966139
C           -5.41624882532803       -2.27278145860149       -1.84342260782107
H           -4.80058208134591       -2.36736246137780       -3.92950572110973
H           -3.00754058806304       -4.09960076204542       -3.57031888968363
C           -5.99633260229881       -0.87023010745723       -1.90546356441602
H           -3.33497229788694       -4.10074829596473       -1.83505042681119
H           -6.19453313520738       -3.02613011960525       -2.01859050756076
H           -4.98594725242213       -2.44217233836580       -0.85197248807450
H           -6.57396424982983       -0.73556146794800       -2.82038006980165
H           -6.63895604510199       -0.64209862899228       -1.04915298405655
H           -5.15613169778353       -0.17754837691452       -1.92690525264106

          :  Hamiltonian                  GFN2-xTB          :
         :: gradient norm              0.000509605010 Eh/a0 ::
         :: HOMO-LUMO gap              9.567388087701 eV    ::
         :: SCC energy               -17.566503870926 Eh    ::
         :: -> dispersion             -0.008380308730 Eh    ::
         :: repulsion energy           0.193469372924 Eh    ::

    * Orbital Energies and Occupations

         #    Occupation            Energy/Eh            Energy/eV
      -------------------------------------------------------------
         1        2.0000           -0.4356408             -11.8544
       ...           ...                  ...                  ...
         4        2.0000           -0.3868714             -10.5273
         5        2.0000           -0.3446043              -9.3772
         6        2.0000           -0.3261909              -8.8761
         7        2.0000           -0.3193288              -8.6894
         8        2.0000           -0.3057746              -8.3206
         9        2.0000           -0.2983672              -8.1190
        10        2.0000           -0.2799447              -7.6177
        11        2.0000           -0.2669295              -7.2635
        12        2.0000           -0.2488655              -6.7720
        13        2.0000           -0.2421680              -6.5897
        14        2.0000           -0.2152601              -5.8575
        15        2.0000           -0.0972845              -2.6472
        16        2.0000           -0.0947284              -2.5777 (HOMO)
        17                          0.2568668               6.9897 (LUMO)
        18                          0.2873221               7.8184
        19                          0.2888986               7.8613
        20                          0.3183167               8.6618
        21                          0.3284593               8.9378
        22                          0.3362515               9.1499
        23                          0.3514636               9.5638
        24                          0.3663625               9.9692
        25                          0.3900146              10.6128
        26                          0.4111023              11.1867
        27                          0.4314985              11.7417
       ...                                ...                  ...
        29                          0.6283367              17.0979
      -------------------------------------------------------------
                  HL-Gap            0.3515951 Eh            9.5674 eV

     #   Z          covCN         q      C6AA      α(0)
     1   6 C        3.745    -0.098    22.445     6.758
     2   6 C        3.699     0.195    17.659     6.010
     3   8 O        0.855    -0.757    30.326     7.383
     4   1 H        0.924    -0.036     3.755     3.030
     5   6 C        3.793    -0.062    21.695     6.633
     6   1 H        0.907    -0.132     6.853     4.095
     7   1 H        0.925    -0.006     3.155     2.778
     8   6 C        3.751    -0.076    22.012     6.691
     9   1 H        0.925    -0.009     3.222     2.807
    10   1 H        0.924    -0.038     3.800     3.049
    11   1 H        0.924    -0.010     3.228     2.810
    12   1 H        0.924    -0.000     3.062     2.737
    13   1 H        0.924    -0.021     3.442     2.901
    14   1 H        0.925     0.049     2.336     2.390

Wiberg/Mayer (AO) data.
largest (>0.10) Wiberg bond orders for each atom

     #   Z sym  total        # sym  WBO       # sym  WBO       # sym  WBO
 ---------------------------------------------------------------------------
     1   6 C    3.977 --     7 H    0.991     9 H    0.991     4 H    0.989
                             2 C    0.921
     2   6 C    3.975 --     3 O    1.236     1 C    0.921     5 C    0.905
                             6 H    0.901
     3   8 O    1.461 --     2 C    1.236
     4   1 H    0.999 --     1 C    0.989
     5   6 C    3.973 --     8 C    1.022    11 H    0.982    10 H    0.980
                             2 C    0.905
     6   1 H    0.982 --     2 C    0.901
     7   1 H    1.000 --     1 C    0.991
     8   6 C    3.996 --     5 C    1.022    12 H    0.990    13 H    0.987
                            14 H    0.982
     9   1 H    1.000 --     1 C    0.991
    10   1 H    0.999 --     5 C    0.980
    11   1 H    1.000 --     5 C    0.982
    12   1 H    1.000 --     8 C    0.990
    13   1 H    0.999 --     8 C    0.987
    14   1 H    0.998 --     8 C    0.982
 ---------------------------------------------------------------------------

molecular dipole:
                 x           y           z       tot (Debye)
 q only:        7.263       3.707       5.199
   full:        6.917       3.368       5.223      23.637

 projected vibrational frequencies (cm⁻¹)
eigval :       -0.00    -0.00    -0.00     0.00     0.00     0.00
eigval :       93.55   188.72   195.98   242.41   362.43   470.21
eigval :      494.46   741.46   813.38   851.42   944.33  1005.11
eigval :     1015.24  1086.57  1107.16  1228.78  1265.84  1276.93
eigval :     1308.59  1344.28  1369.96  1385.17  1487.45  1499.55
eigval :     1502.50  1512.84  1519.39  2102.20  2878.18  2919.64
eigval :     2929.34  2942.15  2988.11  2990.59  3002.50  3008.63

   temp. (K)  partition function   enthalpy   heat capacity  entropy
                                   cal/mol     cal/K/mol   cal/K/mol   J/K/mol
 298.15  VIB   18.3                 2332.921     16.559     13.547
         ROT  0.960E+05              888.752      2.981     25.780
         INT  0.175E+07             3221.673     19.540     39.327
         TR   0.605E+27             1481.254      4.968     38.767
         TOT                        4702.9268    24.5081    78.0938   326.7444

       T/K    H(0)-H(T)+PV         H(T)/Eh          T*S/Eh         G(T)/Eh
   ------------------------------------------------------------------------
    298.15    0.749459E-02    0.126130E+00    0.371049E-01    0.890255E-01
   ------------------------------------------------------------------------

         :::::::::::::::::::::::::::::::::::::::::::::::::::::
         ::                  THERMODYNAMIC                  ::
         :::::::::::::::::::::::::::::::::::::::::::::::::::::
         :: total free energy         -17.284009032664 Eh   ::
         ::.................................................::
         :: total energy              -17.373034498003 Eh   ::
         :: zero point energy           0.118635756843 Eh   ::
         :: G(RRHO) w/o ZPVE           -0.029610291504 Eh   ::
         :: G(RRHO) contrib.            0.089025465339 Eh   ::
         :::::::::::::::::::::::::::::::::::::::::::::::::::::

           -------------------------------------------------
          | TOTAL ENERGY              -17.373034498003 Eh   |
          | TOTAL ENTHALPY            -17.246904150215 Eh   |
          | TOTAL FREE ENERGY         -17.284009032664 Eh   |
          | GRADIENT NORM               0.000509634937 Eh/α |
          | HOMO-LUMO GAP               9.567389846789 eV   |
           -------------------------------------------------

 * finished run on 2025/10/18 at 01:00:01.035
