                         Program Version 5.0.4 -  RELEASE  -
|  1> !OPT PBE D3BJ def2-TZVP CPCM(water)
|  2>
|  3> *xyz -1 1
|  4> O     -2.981122   -4.522828    2.757764
|  5> O     -4.188980   -5.210200    2.572832
|  6> H     -2.349848   -4.752003    2.055087
|  7> *
|  8>
|  9>                          ****END OF INPUT****
 Total Charge           Charge          ....   -1
 Multiplicity           Mult            ....    1
 Number of Electrons    NEL             ....   18
Dispersion correction           -0.000521555
FINAL SINGLE POINT ENERGY      -150.967870428329
Dispersion correction            ... done
Dispersion correction           -0.000521875
FINAL SINGLE POINT ENERGY      -150.972552490212
Dispersion correction            ... done
Dispersion correction           -0.000523333
FINAL SINGLE POINT ENERGY      -150.974236707198
Dispersion correction            ... done
FINAL SINGLE POINT ENERGY      -150.974426513306
Dispersion correction            ... done
Dispersion correction           -0.000524414
FINAL SINGLE POINT ENERGY      -150.974436032515
Dispersion correction            ... done
Dispersion correction           -0.000524423
FINAL SINGLE POINT ENERGY      -150.974436883245
Dispersion correction            ... done
                    ***********************HURRAY********************

CARTESIAN COORDINATES (ANGSTROEM)
---------------------------------
  O     -2.925865   -4.469550    2.795882
  O     -4.207768   -5.239869    2.544176
  H     -2.386318   -4.775612    2.045625

 Multiplicity           Mult            ....    1
 Number of Electrons    NEL             ....   18
 Basis Dimension        Dim             ....   68

ORBITAL ENERGIES
----------------

  NO   OCC          E(Eh)            E(eV)
   0   2.0000     -18.724047      -509.5072
   1   2.0000     -18.645529      -507.3706
   2   2.0000      -0.888182       -24.1687
   3   2.0000      -0.660296       -17.9676
   4   2.0000      -0.368647       -10.0314
   5   2.0000      -0.290618        -7.9081
   6   2.0000      -0.247348        -6.7307
   7   2.0000      -0.126745        -3.4489
   8   2.0000      -0.102460        -2.7881
   9   0.0000       0.028320         0.7706
  10   0.0000       0.066718         1.8155
  11   0.0000       0.380238        10.3468
  12   0.0000       0.388020        10.5586
  13   0.0000       0.395619        10.7653

MULLIKEN ATOMIC CHARGES
-----------------------
   0 O :   -0.489824
   1 O :   -0.823611
   2 H :    0.313435
Sum of atomic charges:   -1.0000000

LOEWDIN ATOMIC CHARGES
----------------------
   0 O :   -0.344771
   1 O :   -0.785786
   2 H :    0.130557

  Mayer bond orders larger than 0.100000
B(  0-O ,  1-O ) :   0.8532 B(  0-O ,  2-H ) :   0.9070

Dispersion correction           -0.000524409
FINAL SINGLE POINT ENERGY      -150.974436983770

DIPOLE MOMENT
-------------
                                X             Y             Z
Electronic contribution:      0.14948       0.16368       0.12944
Nuclear contribution   :      1.07263       0.07187      -0.56735
                        -----------------------------------------
Total Dipole Moment    :      1.22211       0.23555      -0.43791
                        -----------------------------------------
Magnitude (a.u.)       :      1.31939
Magnitude (Debye)      :      3.35362

Rotational constants in cm-1:    19.734040     0.873737     0.836692
Rotational constants in MHz : 591611.630499 26193.978033 25083.394905

                             ****ORCA TERMINATED NORMALLY****
TOTAL RUN TIME: 0 days 0 hours 0 minutes 44 seconds 302 msec
