   * xtb version 6.7.1 (edcfbbe) compiled by 'albert@albert-system' on 2024-07-22

   ID    Z sym.   atoms
    1    6 C      1, 6
    2   16 S      2
    3    1 H      3-5, 7, 9
    4    8 O      8

          program call               : xtb xyz.xyz --alpb water --charge -1 --ohess
      * Solvation model:               ALPB
        Solvent                        water
        Solvent mass                       1.8000E+01 g/mol
          :  Hamiltonian                  GFN2-xTB          :
 * total energy  :   -14.3409450 Eh     change       -0.2319211E-10 Eh
 * total energy  :   -14.3508898 Eh     change       -0.9944816E-02 Eh
 * total energy  :   -14.3498925 Eh     change        0.9972330E-03 Eh
 * total energy  :   -14.3550682 Eh     change       -0.5175704E-02 Eh
 * total energy  :   -14.3554130 Eh     change       -0.3447949E-03 Eh
 * total energy  :   -14.3556475 Eh     change       -0.2344887E-03 Eh
 * total energy  :   -14.3557063 Eh     change       -0.5878232E-04 Eh
 * total energy  :   -14.3557249 Eh     change       -0.1858993E-04 Eh
 * total energy  :   -14.3557343 Eh     change       -0.9384727E-05 Eh
 * total energy  :   -14.3557434 Eh     change       -0.9126423E-05 Eh
 * total energy  :   -14.3557516 Eh     change       -0.8185904E-05 Eh
 * total energy  :   -14.3557767 Eh     change       -0.2511160E-04 Eh
 * total energy  :   -14.3557889 Eh     change       -0.1217193E-04 Eh
 * total energy  :   -14.3558067 Eh     change       -0.1786186E-04 Eh
 * total energy  :   -14.3558095 Eh     change       -0.2706068E-05 Eh
   *** GEOMETRY OPTIMIZATION CONVERGED AFTER 15 ITERATIONS ***

 final structure:
================
9
 xtb: 6.7.1 (edcfbbe)
C           -4.07925901426070        0.63151413766892        0.11213180006269
S           -2.48357712854582        1.55556352899903        0.36728498956887
H           -4.10387527861636        0.30271868935337       -0.91997037074642
H           -4.05761359244384       -0.21345852761177        0.78785346517523
H           -4.90170672973096        1.29989823844267        0.33987525774882
C           -1.42811274291785        0.29720317666913       -0.27927461477690
H           -1.20892453096329       -0.33909050478356        0.60787064403410
O           -2.48712607264755        2.64487453591918       -0.70124990217708
H           -0.47500290987363        0.83304172534302       -0.49478326888932

          :  Hamiltonian                  GFN2-xTB          :
         :: gradient norm              0.000801800866 Eh/a0 ::
         :: HOMO-LUMO gap              3.627862400719 eV    ::
         :: SCC energy               -14.463732804033 Eh    ::
         :: -> dispersion             -0.005926468804 Eh    ::
         :: -> Gsolv                  -0.116369404560 Eh    ::
         :: repulsion energy           0.107923351421 Eh    ::

    * Orbital Energies and Occupations

         #    Occupation            Energy/Eh            Energy/eV
      -------------------------------------------------------------
         1        2.0000           -0.7063865             -19.2218
         2        2.0000           -0.6228462             -16.9485
         3        2.0000           -0.5833503             -15.8738
         4        2.0000           -0.5306975             -14.4410
         5        2.0000           -0.4882467             -13.2859
         6        2.0000           -0.4831150             -13.1462
         7        2.0000           -0.4771803             -12.9847
         8        2.0000           -0.4514817             -12.2854
         9        2.0000           -0.4452963             -12.1171
        10        2.0000           -0.4191900             -11.4067
        11        2.0000           -0.3811235             -10.3709
        12        2.0000           -0.3620461              -9.8518
        13        2.0000           -0.2928705              -7.9694 (HOMO)
        14                         -0.1595493              -4.3416 (LUMO)
        15                         -0.1284281              -3.4947
        16                         -0.0118674              -0.3229
        17                          0.0444617               1.2099
        18                          0.0926087               2.5200
        19                          0.1067798               2.9056
        20                          0.1638672               4.4591
        21                          0.1888969               5.1401
        22                          0.2302773               6.2662
        23                          0.2531361               6.8882
        24                          0.2587405               7.0407
       ...                                ...                  ...
        26                          0.7792448              21.2043
      -------------------------------------------------------------
                  HL-Gap            0.1333212 Eh            3.6279 eV

     #   Z          covCN         q      C6AA      α(0)
     1   6 C        3.740    -0.108    22.645     6.790
     2  16 S        2.799     0.130   135.849    19.617
     3   1 H        0.925     0.059     2.213     2.326
     4   1 H        0.926     0.066     2.133     2.284
     5   1 H        0.925     0.059     2.206     2.323
     6   6 C        2.815    -0.251    34.803     9.666
     7   1 H        0.922    -0.121     6.348     3.940
     8   8 O        0.859    -0.692    28.490     7.156
     9   1 H        0.922    -0.142     7.304     4.226

Wiberg/Mayer (AO) data.
largest (>0.10) Wiberg bond orders for each atom

     #   Z sym  total        # sym  WBO       # sym  WBO       # sym  WBO
 ---------------------------------------------------------------------------
     1   6 C    3.990 --     5 H    0.983     3 H    0.982     4 H    0.982
                             2 S    0.940
     2  16 S    3.771 --     8 O    1.606     6 C    1.170     1 C    0.940
     3   1 H    0.997 --     1 C    0.982
     4   1 H    0.996 --     1 C    0.982
     5   1 H    0.996 --     1 C    0.983
     6   6 C    3.183 --     2 S    1.170     7 H    0.959     9 H    0.951
     7   1 H    0.985 --     6 C    0.959
     8   8 O    1.736 --     2 S    1.606
     9   1 H    0.980 --     6 C    0.951
 ---------------------------------------------------------------------------

molecular dipole:
                 x           y           z       tot (Debye)
 q only:        3.045      -3.340       1.145
   full:        3.344      -3.198       1.108      12.094

 projected vibrational frequencies (cm⁻¹)
eigval :       -0.00    -0.00    -0.00    -0.00     0.00     0.00
eigval :       98.19   162.60   277.99   313.36   375.84   625.25
eigval :      739.57   853.80   871.71   949.52   986.99  1062.03
eigval :     1247.04  1429.41  1433.49  1495.37  2636.38  2689.44
eigval :     3043.98  3062.66  3077.80

   temp. (K)  partition function   enthalpy   heat capacity  entropy
                                   cal/mol     cal/K/mol   cal/K/mol   J/K/mol
 298.15  VIB   11.6                 1919.334     13.080     11.275
         ROT  0.585E+05              888.752      2.981     24.796
         INT  0.681E+06             2808.086     16.061     36.071
         TR   0.655E+27             1481.254      4.968     38.926
         TOT                        4289.3400    21.0288    74.9971   313.7880

       T/K    H(0)-H(T)+PV         H(T)/Eh          T*S/Eh         G(T)/Eh
   ------------------------------------------------------------------------
    298.15    0.683550E-02    0.693311E-01    0.356336E-01    0.336976E-01
   ------------------------------------------------------------------------

         :::::::::::::::::::::::::::::::::::::::::::::::::::::
         ::                  THERMODYNAMIC                  ::
         :::::::::::::::::::::::::::::::::::::::::::::::::::::
         :: total free energy         -14.322111878803 Eh   ::
         ::.................................................::
         :: total energy              -14.355809453445 Eh   ::
         :: zero point energy           0.062495630337 Eh   ::
         :: G(RRHO) w/o ZPVE           -0.028798055695 Eh   ::
         :: G(RRHO) contrib.            0.033697574642 Eh   ::
         :::::::::::::::::::::::::::::::::::::::::::::::::::::

           -------------------------------------------------
          | TOTAL ENERGY              -14.355809453445 Eh   |
          | TOTAL ENTHALPY            -14.286478324763 Eh   |
          | TOTAL FREE ENERGY         -14.322111878803 Eh   |
          | GRADIENT NORM               0.000801611743 Eh/α |
          | HOMO-LUMO GAP               3.627855282896 eV   |
           -------------------------------------------------

 * finished run on 2025/10/18 at 18:46:12.732
