   * xtb version 6.7.1 (edcfbbe) compiled by 'albert@albert-system' on 2024-07-22

   ID    Z sym.   atoms
    1    6 C      1, 2, 5, 7, 9, 11
    2    8 O      3, 8, 14
    3    1 H      4, 6, 10, 12, 13, 15, 16

          program call               : xtb tb_lite_results_shiftn0p15_gp485_b0_rot0_complex.xyz --ohess --chrg -1 --alpb water
      * Solvation model:               ALPB
        Solvent                        water
        Solvent mass                       1.8000E+01 g/mol
          :  Hamiltonian                  GFN2-xTB          :
 * total energy  :   -28.9065799 Eh     change       -0.6503633E-09 Eh
 * total energy  :   -28.9136366 Eh     change       -0.7056784E-02 Eh
 * total energy  :   -28.9143349 Eh     change       -0.6982927E-03 Eh
 * total energy  :   -28.9144841 Eh     change       -0.1491468E-03 Eh
 * total energy  :   -28.9146485 Eh     change       -0.1644298E-03 Eh
 * total energy  :   -28.9147296 Eh     change       -0.8112721E-04 Eh
 * total energy  :   -28.9148169 Eh     change       -0.8726299E-04 Eh
 * total energy  :   -28.9148806 Eh     change       -0.6370819E-04 Eh
 * total energy  :   -28.9149475 Eh     change       -0.6689653E-04 Eh
 * total energy  :   -28.9149946 Eh     change       -0.4707491E-04 Eh
 * total energy  :   -28.9155996 Eh     change       -0.7430619E-05 Eh
 * total energy  :   -28.9156059 Eh     change       -0.6255172E-05 Eh
 * total energy  :   -28.9156126 Eh     change       -0.6659402E-05 Eh
 * total energy  :   -28.9156278 Eh     change       -0.1524812E-04 Eh
 * total energy  :   -28.9156333 Eh     change       -0.5539075E-05 Eh
 * total energy  :   -28.9156476 Eh     change       -0.1426998E-04 Eh
 * total energy  :   -28.9156531 Eh     change       -0.5514872E-05 Eh
 * total energy  :   -28.9156580 Eh     change       -0.4846837E-05 Eh
 * total energy  :   -28.9156626 Eh     change       -0.4605327E-05 Eh
   *** GEOMETRY OPTIMIZATION CONVERGED AFTER 43 ITERATIONS ***

 final structure:
================
16
 xtb: 6.7.1 (edcfbbe)
C           -6.16704978949967       -3.70818056727377        2.13947760237240
C           -6.07662928467754       -4.00798148897351        0.80041324425130
O           -9.27686047171310       -5.33881011341353        3.06819707988875
H           -7.31336502871638       -3.91862735172976        3.95762506159961
C           -7.06963190247809       -4.77932196088273        0.15057947679494
H           -5.24036028744167       -3.65994562193401        0.20655771852719
C           -8.14746652723702       -5.21882785764072        0.95212973494752
O           -6.99060988750356       -5.06379455105437       -1.11128115286590
C           -8.22229874223503       -4.90856750159083        2.29336160631917
H           -8.92150420627861       -5.81179030285223        0.47873027503875
C           -7.23262918125056       -4.14846257264384        2.90709433265931
H           -5.39004755437528       -3.11522910528317        2.60414538025297
H           -9.88826874578852       -5.84735737094282        2.51557630219404
O           -8.98025710167115       -6.43158041155729       -2.13623181289988
H           -8.22025779707582       -5.92267470623995       -1.72103373404288
H           -8.85666170393913       -6.32091922950304       -3.08440228048353

          :  Hamiltonian                  GFN2-xTB          :
         :: gradient norm              0.000599358419 Eh/a0 ::
         :: HOMO-LUMO gap              3.713569046694 eV    ::
         :: SCC energy               -29.256953416291 Eh    ::
         :: -> dispersion             -0.012353089591 Eh    ::
         :: -> Gsolv                  -0.106169592068 Eh    ::
         :: repulsion energy           0.341290838869 Eh    ::

    * Orbital Energies and Occupations

         #    Occupation            Energy/Eh            Energy/eV
      -------------------------------------------------------------
         1        2.0000           -0.6902598             -18.7829
       ...           ...                  ...                  ...
        13        2.0000           -0.4887174             -13.2987
        14        2.0000           -0.4817628             -13.1094
        15        2.0000           -0.4625219             -12.5859
        16        2.0000           -0.4594668             -12.5027
        17        2.0000           -0.4528895             -12.3237
        18        2.0000           -0.4497500             -12.2383
        19        2.0000           -0.4173181             -11.3558
        20        2.0000           -0.4119599             -11.2100
        21        2.0000           -0.4075555             -11.0901
        22        2.0000           -0.4060634             -11.0495
        23        2.0000           -0.3608320              -9.8187
        24        2.0000           -0.3404850              -9.2651
        25        2.0000           -0.3233385              -8.7985 (HOMO)
        26                         -0.1868675              -5.0849 (LUMO)
        27                         -0.1696159              -4.6155
        28                         -0.0523374              -1.4242
        29                          0.0832285               2.2648
        30                          0.1180868               3.2133
        31                          0.1458582               3.9690
        32                          0.1756885               4.7807
        33                          0.1859698               5.0605
        34                          0.2135171               5.8101
        35                          0.2236357               6.0854
        36                          0.2622633               7.1365
       ...                                ...                  ...
        43                          0.7029234              19.1275
      -------------------------------------------------------------
                  HL-Gap            0.1364710 Eh            3.7136 eV

     #   Z          covCN         q      C6AA      α(0)
     1   6 C        2.917    -0.050    29.231     8.866
     2   6 C        2.918    -0.103    30.608     9.072
     3   8 O        1.658    -0.479    22.452     6.397
     4   1 H        0.926     0.019     2.751     2.594
     5   6 C        2.836     0.161    24.507     8.113
     6   1 H        0.925    -0.013     3.286     2.835
     7   6 C        2.918    -0.135    31.456     9.197
     8   8 O        0.858    -0.711    29.010     7.221
     9   6 C        2.843     0.121    25.336     8.249
    10   1 H        0.925     0.003     3.013     2.715
    11   6 C        2.917    -0.099    30.483     9.054
    12   1 H        0.925     0.012     2.858     2.643
    13   1 H        0.805     0.354     0.580     1.196
    14   8 O        1.603    -0.718    28.205     7.168
    15   1 H        0.799     0.302     0.715     1.329
    16   1 H        0.805     0.336     0.621     1.238

Wiberg/Mayer (AO) data.
largest (>0.10) Wiberg bond orders for each atom

     #   Z sym  total        # sym  WBO       # sym  WBO       # sym  WBO
 ---------------------------------------------------------------------------
     1   6 C    3.990 --     2 C    1.488    11 C    1.413    12 H    0.971
     2   6 C    3.977 --     1 C    1.488     5 C    1.266     6 H    0.972
     3   8 O    2.036 --     9 C    1.036    13 H    0.855
     4   1 H    1.000 --    11 C    0.971
     5   6 C    3.964 --     8 O    1.312     7 C    1.278     2 C    1.266
     6   1 H    1.000 --     2 C    0.972
     7   6 C    3.967 --     9 C    1.430     5 C    1.278    10 H    0.964
     8   8 O    1.728 --     5 C    1.312    15 H    0.100
     9   6 C    3.933 --     7 C    1.430    11 C    1.352     3 O    1.036
    10   1 H    1.000 --     7 C    0.964
    11   6 C    3.971 --     1 C    1.413     9 C    1.352     4 H    0.971
    12   1 H    1.000 --     1 C    0.971
    13   1 H    0.875 --     3 O    0.855
    14   8 O    1.741 --    16 H    0.886    15 H    0.803
    15   1 H    0.909 --    14 O    0.803     8 O    0.100
    16   1 H    0.887 --    14 O    0.886
 ---------------------------------------------------------------------------

molecular dipole:
                 x           y           z       tot (Debye)
 q only:       13.910       9.568      -0.023
   full:       14.001       9.625      -0.151      43.187

 projected vibrational frequencies (cm⁻¹)
eigval :       -0.00    -0.00    -0.00    -0.00     0.00     0.00
eigval :       40.69    68.92   110.00   203.42   216.03   220.77
eigval :      351.45   404.50   426.92   476.70   505.10   523.42
eigval :      568.01   594.91   652.63   750.91   764.12   811.67
eigval :      839.06   858.60   903.73   973.91   989.45  1103.01
eigval :     1121.11  1164.95  1190.75  1268.51  1305.35  1352.62
eigval :     1459.28  1492.41  1545.82  1553.33  1608.32  2690.73
eigval :     3023.46  3035.73  3043.51  3088.86  3471.11  3610.68

   temp. (K)  partition function   enthalpy   heat capacity  entropy
                                   cal/mol     cal/K/mol   cal/K/mol   J/K/mol
 298.15  VIB   546.                 4229.403     27.929     25.457
         ROT  0.625E+06              888.752      2.981     29.502
         INT  0.341E+09             5118.156     30.909     54.959
         TR   0.139E+28             1481.254      4.968     40.415
         TOT                        6599.4094    35.8776    95.3741   399.0451

       T/K    H(0)-H(T)+PV         H(T)/Eh          T*S/Eh         G(T)/Eh
   ------------------------------------------------------------------------
    298.15    0.105168E-01    0.125301E+00    0.453153E-01    0.799858E-01
   ------------------------------------------------------------------------

         :::::::::::::::::::::::::::::::::::::::::::::::::::::
         ::                  THERMODYNAMIC                  ::
         :::::::::::::::::::::::::::::::::::::::::::::::::::::
         :: total free energy         -28.835676802580 Eh   ::
         ::.................................................::
         :: total energy              -28.915662576583 Eh   ::
         :: zero point energy           0.114784241483 Eh   ::
         :: G(RRHO) w/o ZPVE           -0.034798467480 Eh   ::
         :: G(RRHO) contrib.            0.079985774003 Eh   ::
         :::::::::::::::::::::::::::::::::::::::::::::::::::::

           -------------------------------------------------
          | TOTAL ENERGY              -28.915662576583 Eh   |
          | TOTAL ENTHALPY            -28.790361506739 Eh   |
          | TOTAL FREE ENERGY         -28.835676802580 Eh   |
          | GRADIENT NORM               0.000599990500 Eh/α |
          | HOMO-LUMO GAP               3.713565435756 eV   |
           -------------------------------------------------

 * finished run on 2025/10/18 at 02:59:10.555
normal termination of xtb
