   * xtb version 6.7.1 (edcfbbe) compiled by 'albert@albert-system' on 2024-07-22

   ID    Z sym.   atoms
    1    6 C      1, 2, 5, 7, 9, 11
    2    8 O      3, 8, 14
    3    1 H      4, 6, 10, 12, 13, 15, 16

          program call               : xtb tb_lite_results_shiftn0p15_gp435_b0_rot270_complex.xyz --ohess --chrg -1 --alpb water
      * Solvation model:               ALPB
        Solvent                        water
        Solvent mass                       1.8000E+01 g/mol
          :  Hamiltonian                  GFN2-xTB          :
 * total energy  :   -28.9077134 Eh     change       -0.2221512E-09 Eh
 * total energy  :   -28.9142216 Eh     change       -0.6508282E-02 Eh
 * total energy  :   -28.9148447 Eh     change       -0.6230872E-03 Eh
 * total energy  :   -28.9149908 Eh     change       -0.1460791E-03 Eh
 * total energy  :   -28.9152032 Eh     change       -0.2124015E-03 Eh
 * total energy  :   -28.9153168 Eh     change       -0.1136309E-03 Eh
 * total energy  :   -28.9154097 Eh     change       -0.9280945E-04 Eh
 * total energy  :   -28.9154888 Eh     change       -0.7916606E-04 Eh
 * total energy  :   -28.9155459 Eh     change       -0.5712433E-04 Eh
 * total energy  :   -28.9155980 Eh     change       -0.5209803E-04 Eh
 * total energy  :   -28.9156544 Eh     change       -0.5636080E-04 Eh
 * total energy  :   -28.9156925 Eh     change       -0.3804801E-04 Eh
 * total energy  :   -28.9156993 Eh     change       -0.6809330E-05 Eh
 * total energy  :   -28.9157015 Eh     change       -0.2242092E-05 Eh
   *** GEOMETRY OPTIMIZATION CONVERGED AFTER 14 ITERATIONS ***

 final structure:
================
16
 xtb: 6.7.1 (edcfbbe)
C           -6.29770778197087       -3.58694716026677        2.07620640362621
C           -5.99316014717685       -3.99278942954828        0.79803866269114
O           -9.36931803035540       -5.41072197530905        2.73279834626054
H           -7.67238619834036       -3.74202105226186        3.73443194195779
C           -6.81918818558984       -4.90532802938873        0.09924336013927
H           -5.11013785259903       -3.62258707028088        0.29177986928953
C           -7.96286427331912       -5.37007299845673        0.78737008128305
O           -6.53853889562912       -5.29015278411443       -1.10581420290032
C           -8.25256499801456       -4.95280548126160        2.06897499937358
H           -8.61288358740608       -6.06997298578189        0.27503555873862
C           -7.42430644993163       -4.05440871136439        2.73252240071389
H           -5.64378448624301       -2.88760262452163        2.58061397214836
H           -9.84756798894249       -6.02464112752887        2.15655470497794
O           -8.23369969827519       -6.94056590535508       -2.23722512478621
H           -7.59305301699124       -6.31593894042509       -1.78105597422561
H           -7.91608976365015       -6.99117502964718       -3.14419675672994

          :  Hamiltonian                  GFN2-xTB          :
         :: gradient norm              0.000399030443 Eh/a0 ::
         :: HOMO-LUMO gap              3.714070448712 eV    ::
         :: SCC energy               -29.257145988455 Eh    ::
         :: -> dispersion             -0.012354512779 Eh    ::
         :: -> Gsolv                  -0.106148223832 Eh    ::
         :: repulsion energy           0.341444483797 Eh    ::

    * Orbital Energies and Occupations

         #    Occupation            Energy/Eh            Energy/eV
      -------------------------------------------------------------
         1        2.0000           -0.6902754             -18.7833
       ...           ...                  ...                  ...
        13        2.0000           -0.4886937             -13.2980
        14        2.0000           -0.4818543             -13.1119
        15        2.0000           -0.4625450             -12.5865
        16        2.0000           -0.4594663             -12.5027
        17        2.0000           -0.4529257             -12.3247
        18        2.0000           -0.4497614             -12.2386
        19        2.0000           -0.4173054             -11.3555
        20        2.0000           -0.4119743             -11.2104
        21        2.0000           -0.4075744             -11.0907
        22        2.0000           -0.4061077             -11.0508
        23        2.0000           -0.3608266              -9.8186
        24        2.0000           -0.3405101              -9.2658
        25        2.0000           -0.3233505              -8.7988 (HOMO)
        26                         -0.1868611              -5.0847 (LUMO)
        27                         -0.1695839              -4.6146
        28                         -0.0523087              -1.4234
        29                          0.0836150               2.2753
        30                          0.1183298               3.2199
        31                          0.1459761               3.9722
        32                          0.1756857               4.7807
        33                          0.1862323               5.0676
        34                          0.2134853               5.8092
        35                          0.2238733               6.0919
        36                          0.2624560               7.1418
       ...                                ...                  ...
        43                          0.7030469              19.1309
      -------------------------------------------------------------
                  HL-Gap            0.1364895 Eh            3.7141 eV

     #   Z          covCN         q      C6AA      α(0)
     1   6 C        2.917    -0.050    29.232     8.866
     2   6 C        2.918    -0.103    30.610     9.073
     3   8 O        1.658    -0.479    22.454     6.397
     4   1 H        0.926     0.019     2.752     2.594
     5   6 C        2.836     0.162    24.506     8.112
     6   1 H        0.925    -0.013     3.286     2.835
     7   6 C        2.918    -0.135    31.457     9.197
     8   8 O        0.858    -0.711    29.004     7.221
     9   6 C        2.843     0.121    25.337     8.249
    10   1 H        0.925     0.003     3.013     2.714
    11   6 C        2.917    -0.099    30.483     9.054
    12   1 H        0.925     0.012     2.857     2.643
    13   1 H        0.805     0.354     0.579     1.196
    14   8 O        1.603    -0.718    28.208     7.168
    15   1 H        0.799     0.302     0.715     1.329
    16   1 H        0.805     0.336     0.622     1.238

Wiberg/Mayer (AO) data.
largest (>0.10) Wiberg bond orders for each atom

     #   Z sym  total        # sym  WBO       # sym  WBO       # sym  WBO
 ---------------------------------------------------------------------------
     1   6 C    3.990 --     2 C    1.488    11 C    1.413    12 H    0.971
     2   6 C    3.977 --     1 C    1.488     5 C    1.266     6 H    0.972
     3   8 O    2.036 --     9 C    1.036    13 H    0.855
     4   1 H    1.000 --    11 C    0.971
     5   6 C    3.964 --     8 O    1.312     7 C    1.278     2 C    1.266
     6   1 H    1.000 --     2 C    0.972
     7   6 C    3.967 --     9 C    1.430     5 C    1.278    10 H    0.964
     8   8 O    1.728 --     5 C    1.312    15 H    0.100
     9   6 C    3.933 --     7 C    1.430    11 C    1.352     3 O    1.036
    10   1 H    1.000 --     7 C    0.964
    11   6 C    3.971 --     1 C    1.413     9 C    1.352     4 H    0.971
    12   1 H    1.000 --     1 C    0.971
    13   1 H    0.875 --     3 O    0.855
    14   8 O    1.741 --    16 H    0.886    15 H    0.803
    15   1 H    0.909 --    14 O    0.803     8 O    0.100
    16   1 H    0.887 --    14 O    0.886
 ---------------------------------------------------------------------------

molecular dipole:
                 x           y           z       tot (Debye)
 q only:       13.391       9.826       0.101
   full:       13.505       9.868      -0.017      42.513

 projected vibrational frequencies (cm⁻¹)
eigval :       -0.00    -0.00    -0.00     0.00     0.00     0.00
eigval :       43.92    72.55   173.28   203.92   218.12   222.28
eigval :      353.22   401.18   428.65   479.03   507.81   524.43
eigval :      585.96   594.90   652.88   751.14   764.30   812.03
eigval :      839.94   857.36   902.97   974.19   991.36  1104.38
eigval :     1125.79  1165.43  1191.45  1270.67  1305.40  1353.39
eigval :     1459.39  1493.31  1550.83  1553.71  1608.63  2694.52
eigval :     3023.88  3036.60  3044.07  3088.85  3471.87  3618.86

   temp. (K)  partition function   enthalpy   heat capacity  entropy
                                   cal/mol     cal/K/mol   cal/K/mol   J/K/mol
 298.15  VIB   348.                 4135.919     27.923     24.457
         ROT  0.625E+06              888.752      2.981     29.501
         INT  0.217E+09             5024.671     30.904     53.957
         TR   0.139E+28             1481.254      4.968     40.415
         TOT                        6505.9248    35.8720    94.3724   394.8540

       T/K    H(0)-H(T)+PV         H(T)/Eh          T*S/Eh         G(T)/Eh
   ------------------------------------------------------------------------
    298.15    0.103679E-01    0.125453E+00    0.448394E-01    0.806134E-01
   ------------------------------------------------------------------------

         :::::::::::::::::::::::::::::::::::::::::::::::::::::
         ::                  THERMODYNAMIC                  ::
         :::::::::::::::::::::::::::::::::::::::::::::::::::::
         :: total free energy         -28.835088100065 Eh   ::
         ::.................................................::
         :: total energy              -28.915701506038 Eh   ::
         :: zero point energy           0.115084910492 Eh   ::
         :: G(RRHO) w/o ZPVE           -0.034471504519 Eh   ::
         :: G(RRHO) contrib.            0.080613405973 Eh   ::
         :::::::::::::::::::::::::::::::::::::::::::::::::::::

           -------------------------------------------------
          | TOTAL ENERGY              -28.915701506038 Eh   |
          | TOTAL ENTHALPY            -28.790248744398 Eh   |
          | TOTAL FREE ENERGY         -28.835088100065 Eh   |
          | GRADIENT NORM               0.000399324265 Eh/α |
          | HOMO-LUMO GAP               3.714067070405 eV   |
           -------------------------------------------------

 * finished run on 2025/10/18 at 02:59:16.462
normal termination of xtb
