   * xtb version 6.7.1 (edcfbbe) compiled by 'albert@albert-system' on 2024-07-22

   ID    Z sym.   atoms
    1    6 C      1, 2, 5, 7, 9, 11
    2    8 O      3, 8, 14
    3    1 H      4, 6, 10, 12, 13, 15, 16

          program call               : xtb tb_lite_results_shiftn0p15_gp480_b0_rot270_complex.xyz --ohess --chrg -1 --alpb water
      * Solvation model:               ALPB
        Solvent                        water
        Solvent mass                       1.8000E+01 g/mol
          :  Hamiltonian                  GFN2-xTB          :
 * total energy  :   -28.9077549 Eh     change       -0.2604388E-09 Eh
 * total energy  :   -28.9142733 Eh     change       -0.6518435E-02 Eh
 * total energy  :   -28.9149101 Eh     change       -0.6368001E-03 Eh
 * total energy  :   -28.9150594 Eh     change       -0.1493007E-03 Eh
 * total energy  :   -28.9152636 Eh     change       -0.2041276E-03 Eh
 * total energy  :   -28.9153520 Eh     change       -0.8846708E-04 Eh
 * total energy  :   -28.9154404 Eh     change       -0.8833208E-04 Eh
 * total energy  :   -28.9155120 Eh     change       -0.7160572E-04 Eh
 * total energy  :   -28.9155646 Eh     change       -0.5264325E-04 Eh
 * total energy  :   -28.9156097 Eh     change       -0.4511398E-04 Eh
 * total energy  :   -28.9156488 Eh     change       -0.3907080E-04 Eh
 * total energy  :   -28.9156670 Eh     change       -0.1822574E-04 Eh
 * total energy  :   -28.9156701 Eh     change       -0.3026022E-05 Eh
   *** GEOMETRY OPTIMIZATION CONVERGED AFTER 13 ITERATIONS ***

 final structure:
================
16
 xtb: 6.7.1 (edcfbbe)
C           -6.36775110043013       -3.49053209124410        2.02289358186048
C           -6.00033534126976       -3.99635300574832        0.79772318489947
O           -9.36026548202516       -5.41216310909889        2.76308671469832
H           -7.78517157274874       -3.56685040060368        3.65046928425043
C           -6.75267613520416       -5.01622960609163        0.16693186033975
H           -5.12107732807151       -3.62705119526460        0.28420081647383
C           -7.89422760916199       -5.47481706697548        0.86278832171187
O           -6.41215157845024       -5.49813559663507       -0.98706128931172
C           -8.24747041844353       -4.95652579549690        2.09070493396636
H           -8.48830827410034       -6.25569466735581        0.40222896442908
C           -7.48943237151133       -3.95607618132497        2.68915203876634
H           -5.76752110308439       -2.71303608165926        2.47735956235898
H           -9.78389143162287       -6.10498889338120        2.23531403145300
O           -7.86799500809777       -7.48629260540476       -1.89114746956313
H           -7.32112461773295       -6.72635831459488       -1.52721270516513
H           -7.49232768879534       -7.65935304019648       -2.76013588834379

          :  Hamiltonian                  GFN2-xTB          :
         :: gradient norm              0.000786936055 Eh/a0 ::
         :: HOMO-LUMO gap              3.712374180542 eV    ::
         :: SCC energy               -29.256751759768 Eh    ::
         :: -> dispersion             -0.012357038965 Eh    ::
         :: -> Gsolv                  -0.106178817749 Eh    ::
         :: repulsion energy           0.341081708565 Eh    ::

    * Orbital Energies and Occupations

         #    Occupation            Energy/Eh            Energy/eV
      -------------------------------------------------------------
         1        2.0000           -0.6902060             -18.7815
       ...           ...                  ...                  ...
        13        2.0000           -0.4886315             -13.2963
        14        2.0000           -0.4819158             -13.1136
        15        2.0000           -0.4624966             -12.5852
        16        2.0000           -0.4594501             -12.5023
        17        2.0000           -0.4527765             -12.3207
        18        2.0000           -0.4497418             -12.2381
        19        2.0000           -0.4172944             -11.3552
        20        2.0000           -0.4121070             -11.2140
        21        2.0000           -0.4075143             -11.0890
        22        2.0000           -0.4060731             -11.0498
        23        2.0000           -0.3607634              -9.8169
        24        2.0000           -0.3404809              -9.2650
        25        2.0000           -0.3233218              -8.7980 (HOMO)
        26                         -0.1868945              -5.0857 (LUMO)
        27                         -0.1696217              -4.6156
        28                         -0.0524088              -1.4261
        29                          0.0834396               2.2705
        30                          0.1178567               3.2070
        31                          0.1459032               3.9702
        32                          0.1755612               4.7773
        33                          0.1859521               5.0600
        34                          0.2132764               5.8035
        35                          0.2238595               6.0915
        36                          0.2621093               7.1324
       ...                                ...                  ...
        43                          0.7024100              19.1136
      -------------------------------------------------------------
                  HL-Gap            0.1364273 Eh            3.7124 eV

     #   Z          covCN         q      C6AA      α(0)
     1   6 C        2.917    -0.050    29.233     8.866
     2   6 C        2.918    -0.103    30.609     9.073
     3   8 O        1.658    -0.480    22.454     6.397
     4   1 H        0.926     0.019     2.751     2.594
     5   6 C        2.835     0.161    24.509     8.113
     6   1 H        0.925    -0.013     3.286     2.835
     7   6 C        2.918    -0.135    31.456     9.197
     8   8 O        0.858    -0.711    29.013     7.222
     9   6 C        2.843     0.121    25.338     8.250
    10   1 H        0.925     0.003     3.009     2.713
    11   6 C        2.917    -0.099    30.482     9.054
    12   1 H        0.925     0.012     2.857     2.643
    13   1 H        0.805     0.354     0.580     1.196
    14   8 O        1.603    -0.718    28.201     7.167
    15   1 H        0.799     0.302     0.715     1.329
    16   1 H        0.805     0.336     0.621     1.238

Wiberg/Mayer (AO) data.
largest (>0.10) Wiberg bond orders for each atom

     #   Z sym  total        # sym  WBO       # sym  WBO       # sym  WBO
 ---------------------------------------------------------------------------
     1   6 C    3.990 --     2 C    1.488    11 C    1.413    12 H    0.971
     2   6 C    3.977 --     1 C    1.488     5 C    1.266     6 H    0.972
     3   8 O    2.036 --     9 C    1.036    13 H    0.855
     4   1 H    1.000 --    11 C    0.971
     5   6 C    3.964 --     8 O    1.312     7 C    1.278     2 C    1.266
     6   1 H    1.000 --     2 C    0.972
     7   6 C    3.967 --     9 C    1.430     5 C    1.278    10 H    0.964
     8   8 O    1.728 --     5 C    1.312
     9   6 C    3.933 --     7 C    1.430    11 C    1.352     3 O    1.036
    10   1 H    1.000 --     7 C    0.964
    11   6 C    3.971 --     1 C    1.413     9 C    1.352     4 H    0.971
    12   1 H    1.000 --     1 C    0.971
    13   1 H    0.875 --     3 O    0.855
    14   8 O    1.741 --    16 H    0.886    15 H    0.803
    15   1 H    0.909 --    14 O    0.803
    16   1 H    0.887 --    14 O    0.886
 ---------------------------------------------------------------------------

molecular dipole:
                 x           y           z       tot (Debye)
 q only:       13.201      10.108      -0.101
   full:       13.314      10.146      -0.222      42.550

 projected vibrational frequencies (cm⁻¹)
eigval :       -0.00    -0.00    -0.00    -0.00    -0.00     0.00
eigval :       30.06    50.93    77.87   203.57   217.27   220.50
eigval :      352.89   393.20   424.63   478.48   506.39   523.67
eigval :      573.20   595.10   652.79   750.68   764.91   812.18
eigval :      839.98   861.65   903.95   973.91   990.54  1104.59
eigval :     1124.94  1165.65  1191.10  1270.19  1304.79  1352.40
eigval :     1458.58  1492.61  1548.30  1553.16  1607.75  2692.46
eigval :     3023.27  3036.39  3043.47  3088.23  3469.82  3614.32

   temp. (K)  partition function   enthalpy   heat capacity  entropy
                                   cal/mol     cal/K/mol   cal/K/mol   J/K/mol
 298.15  VIB  0.123E+04             4307.202     27.399     26.295
         ROT  0.624E+06              888.752      2.981     29.499
         INT  0.771E+09             5195.954     30.380     55.794
         TR   0.139E+28             1481.254      4.968     40.415
         TOT                        6677.2081    35.3479    96.2092   402.5393

       T/K    H(0)-H(T)+PV         H(T)/Eh          T*S/Eh         G(T)/Eh
   ------------------------------------------------------------------------
    298.15    0.106408E-01    0.125325E+00    0.457121E-01    0.796125E-01
   ------------------------------------------------------------------------

         :::::::::::::::::::::::::::::::::::::::::::::::::::::
         ::                  THERMODYNAMIC                  ::
         :::::::::::::::::::::::::::::::::::::::::::::::::::::
         :: total free energy         -28.836057539513 Eh   ::
         ::.................................................::
         :: total energy              -28.915670052200 Eh   ::
         :: zero point energy           0.114683796811 Eh   ::
         :: G(RRHO) w/o ZPVE           -0.035071284124 Eh   ::
         :: G(RRHO) contrib.            0.079612512688 Eh   ::
         :::::::::::::::::::::::::::::::::::::::::::::::::::::

           -------------------------------------------------
          | TOTAL ENERGY              -28.915670052200 Eh   |
          | TOTAL ENTHALPY            -28.790345446972 Eh   |
          | TOTAL FREE ENERGY         -28.836057539513 Eh   |
          | GRADIENT NORM               0.000787653503 Eh/α |
          | HOMO-LUMO GAP               3.712375129288 eV   |
           -------------------------------------------------

 * finished run on 2025/10/18 at 02:59:18.824
normal termination of xtb
