   * xtb version 6.7.1 (edcfbbe) compiled by 'albert@albert-system' on 2024-07-22

   ID    Z sym.   atoms
    1    6 C      1, 2, 5, 7, 9, 11
    2    8 O      3, 8
    3    1 H      4, 6, 10, 12, 13

          program call               : xtb tb_lite_results_shiftn0p15_gp480_b0_rot270_solute.xyz --ohess --chrg -1
          :  Hamiltonian                  GFN2-xTB          :
 * total energy  :   -23.7188334 Eh     change       -0.5479315E-09 Eh
 * total energy  :   -23.7237652 Eh     change       -0.4931839E-02 Eh
 * total energy  :   -23.7240124 Eh     change       -0.2471338E-03 Eh
 * total energy  :   -23.7240405 Eh     change       -0.2810141E-04 Eh
 * total energy  :   -23.7240486 Eh     change       -0.8156692E-05 Eh
 * total energy  :   -23.7240480 Eh     change        0.5904899E-06 Eh
 * total energy  :   -23.7240492 Eh     change       -0.1112882E-05 Eh
   *** GEOMETRY OPTIMIZATION CONVERGED AFTER 7 ITERATIONS ***

 final structure:
================
13
 xtb: 6.7.1 (edcfbbe)
C           -6.30413242218932       -3.53800992511172        2.03563651936364
C           -6.03485334443301       -4.02971922783762        0.78466049399815
O           -9.36824162705174       -5.32322155130684        2.90646685985973
H           -7.62870596348277       -3.56976529531450        3.75198365046132
C           -6.87253604048218       -5.00137465972470        0.14703495659643
H           -5.16224119612055       -3.68484245635619        0.24060547955422
C           -8.00124449366421       -5.40385088941235        0.92976417134376
O           -6.64148122260700       -5.46453906137926       -1.00111382979656
C           -8.24968259024580       -4.89654021195166        2.18111896861083
H           -8.67931207837568       -6.14056916757252        0.50377627994457
C           -7.41222988684659       -3.95446591875425        2.76548520561107
H           -5.63719425564830       -2.80070756764314        2.47763819406095
H           -9.82183635262289       -5.96641636358990        2.34960914941742

          :  Hamiltonian                  GFN2-xTB          :
         :: gradient norm              0.000046740436 Eh/a0 ::
         :: HOMO-LUMO gap              3.388150123149 eV    ::
         :: SCC energy               -24.036067593164 Eh    ::
         :: -> dispersion             -0.010821338660 Eh    ::
         :: repulsion energy           0.312018438698 Eh    ::

    * Orbital Energies and Occupations

         #    Occupation            Energy/Eh            Energy/eV
      -------------------------------------------------------------
         1        2.0000           -0.5469499             -14.8833
       ...           ...                  ...                  ...
         9        2.0000           -0.3509129              -9.5488
        10        2.0000           -0.3483923              -9.4802
        11        2.0000           -0.3321509              -9.0383
        12        2.0000           -0.3084295              -8.3928
        13        2.0000           -0.3030407              -8.2462
        14        2.0000           -0.2887140              -7.8563
        15        2.0000           -0.2870147              -7.8101
        16        2.0000           -0.2583248              -7.0294
        17        2.0000           -0.2489065              -6.7731
        18        2.0000           -0.2480684              -6.7503
        19        2.0000           -0.2060756              -5.6076
        20        2.0000           -0.1594163              -4.3379
        21        2.0000           -0.1523788              -4.1464 (HOMO)
        22                         -0.0278666              -0.7583 (LUMO)
        23                         -0.0045753              -0.1245
        24                          0.1086369               2.9562
        25                          0.2168298               5.9002
        26                          0.2782814               7.5724
        27                          0.3094043               8.4193
        28                          0.3226597               8.7800
        29                          0.3627198               9.8701
        30                          0.3721684              10.1272
        31                          0.4451494              12.1131
        32                          0.5623054              15.3011
       ...                                ...                  ...
        37                          0.8755373              23.8246
      -------------------------------------------------------------
                  HL-Gap            0.1245122 Eh            3.3882 eV

     #   Z          covCN         q      C6AA      α(0)
     1   6 C        2.915    -0.050    29.248     8.868
     2   6 C        2.916    -0.108    30.730     9.090
     3   8 O        1.657    -0.458    22.003     6.332
     4   1 H        0.926    -0.020     3.432     2.897
     5   6 C        2.829     0.183    24.089     8.043
     6   1 H        0.925    -0.019     3.403     2.885
     7   6 C        2.916    -0.136    31.481     9.201
     8   8 O        0.857    -0.609    26.337     6.881
     9   6 C        2.841     0.113    25.510     8.277
    10   1 H        0.925    -0.024     3.517     2.933
    11   6 C        2.915    -0.106    30.683     9.083
    12   1 H        0.925    -0.031     3.662     2.993
    13   1 H        0.805     0.266     0.831     1.432

Wiberg/Mayer (AO) data.
largest (>0.10) Wiberg bond orders for each atom

     #   Z sym  total        # sym  WBO       # sym  WBO       # sym  WBO
 ---------------------------------------------------------------------------
     1   6 C    3.987 --     2 C    1.523    11 C    1.381    12 H    0.969
     2   6 C    3.974 --     1 C    1.523     5 C    1.199     6 H    0.972
                             8 O    0.101
     3   8 O    2.026 --     9 C    0.988    13 H    0.908
     4   1 H    1.000 --    11 C    0.972
     5   6 C    3.971 --     8 O    1.472     7 C    1.206     2 C    1.199
     6   1 H    1.000 --     2 C    0.972
     7   6 C    3.957 --     9 C    1.464     5 C    1.206    10 H    0.964
                             8 O    0.112
     8   8 O    1.793 --     5 C    1.472     7 C    0.112     2 C    0.101
     9   6 C    3.913 --     7 C    1.464    11 C    1.349     3 O    0.988
    10   1 H    0.999 --     7 C    0.964
    11   6 C    3.957 --     1 C    1.381     9 C    1.349     4 H    0.972
    12   1 H    0.999 --     1 C    0.969
    13   1 H    0.929 --     3 O    0.908
 ---------------------------------------------------------------------------

molecular dipole:
                 x           y           z       tot (Debye)
 q only:       13.254       9.176      -1.133
   full:       13.124       9.160      -0.987      40.758

 projected vibrational frequencies (cm⁻¹)
eigval :       -0.00    -0.00    -0.00     0.00     0.00     0.00
eigval :      192.94   213.50   325.17   384.70   423.64   471.57
eigval :      494.29   514.88   589.55   654.06   740.89   744.89
eigval :      781.97   827.39   903.24   957.00   979.59  1102.45
eigval :     1144.03  1169.81  1191.48  1245.48  1294.66  1395.93
eigval :     1478.81  1533.64  1568.67  1634.86  2965.66  2979.47
eigval :     3021.35  3057.14  3527.87

   temp. (K)  partition function   enthalpy   heat capacity  entropy
                                   cal/mol     cal/K/mol   cal/K/mol   J/K/mol
 298.15  VIB   7.64                 2330.912     19.732     11.860
         ROT  0.287E+06              888.752      2.981     27.956
         INT  0.219E+07             3219.664     22.713     39.816
         TR   0.110E+28             1481.254      4.968     39.960
         TOT                        4700.9178    27.6814    79.7755   333.7806

       T/K    H(0)-H(T)+PV         H(T)/Eh          T*S/Eh         G(T)/Eh
   ------------------------------------------------------------------------
    298.15    0.749139E-02    0.997812E-01    0.379039E-01    0.618773E-01
   ------------------------------------------------------------------------

         :::::::::::::::::::::::::::::::::::::::::::::::::::::
         ::                  THERMODYNAMIC                  ::
         :::::::::::::::::::::::::::::::::::::::::::::::::::::
         :: total free energy         -23.662171842687 Eh   ::
         ::.................................................::
         :: total energy              -23.724049154466 Eh   ::
         :: zero point energy           0.092289830161 Eh   ::
         :: G(RRHO) w/o ZPVE           -0.030412518382 Eh   ::
         :: G(RRHO) contrib.            0.061877311779 Eh   ::
         :::::::::::::::::::::::::::::::::::::::::::::::::::::

           -------------------------------------------------
          | TOTAL ENERGY              -23.724049154466 Eh   |
          | TOTAL ENTHALPY            -23.624267934980 Eh   |
          | TOTAL FREE ENERGY         -23.662171842687 Eh   |
          | GRADIENT NORM               0.000046729672 Eh/α |
          | HOMO-LUMO GAP               3.388150388801 eV   |
           -------------------------------------------------

 * finished run on 2025/10/18 at 02:59:19.399
normal termination of xtb
