   * xtb version 6.7.1 (edcfbbe) compiled by 'albert@albert-system' on 2024-07-22

   ID    Z sym.   atoms
    1    6 C      1, 2, 5, 7, 9, 11
    2    8 O      3, 8, 14
    3    1 H      4, 6, 10, 12, 13, 15, 16

          program call               : xtb tb_lite_results_shiftn0p1_gp485_b0_rot0_complex.xyz --ohess --chrg -1 --alpb water
      * Solvation model:               ALPB
        Solvent                        water
        Solvent mass                       1.8000E+01 g/mol
          :  Hamiltonian                  GFN2-xTB          :
 * total energy  :   -28.9067298 Eh     change       -0.4454428E-09 Eh
 * total energy  :   -28.9135287 Eh     change       -0.6798929E-02 Eh
 * total energy  :   -28.9142723 Eh     change       -0.7436294E-03 Eh
 * total energy  :   -28.9144695 Eh     change       -0.1971952E-03 Eh
 * total energy  :   -28.9146417 Eh     change       -0.1721846E-03 Eh
 * total energy  :   -28.9147198 Eh     change       -0.7809166E-04 Eh
 * total energy  :   -28.9147994 Eh     change       -0.7962062E-04 Eh
 * total energy  :   -28.9148694 Eh     change       -0.7000454E-04 Eh
 * total energy  :   -28.9149262 Eh     change       -0.5678183E-04 Eh
 * total energy  :   -28.9150016 Eh     change       -0.7537449E-04 Eh
 * total energy  :   -28.9155923 Eh     change       -0.5768957E-05 Eh
 * total energy  :   -28.9154958 Eh     change        0.9645914E-04 Eh
 * total energy  :   -28.9156005 Eh     change       -0.1047097E-03 Eh
 * total energy  :   -28.9156104 Eh     change       -0.9894254E-05 Eh
 * total energy  :   -28.9156257 Eh     change       -0.1534031E-04 Eh
 * total energy  :   -28.9156185 Eh     change        0.7193067E-05 Eh
 * total energy  :   -28.9156423 Eh     change       -0.2371966E-04 Eh
 * total energy  :   -28.9156483 Eh     change       -0.6038267E-05 Eh
 * total energy  :   -28.9156510 Eh     change       -0.2659692E-05 Eh
   *** GEOMETRY OPTIMIZATION CONVERGED AFTER 44 ITERATIONS ***

 final structure:
================
16
 xtb: 6.7.1 (edcfbbe)
C           -6.19815941105437       -3.66271015286755        2.11402791639590
C           -6.10504324733431       -3.97814321985876        0.77870347234957
O           -9.25746192402729       -5.36640318699861        3.07876258733339
H           -7.33082835556706       -3.87925625995040        3.93984155830824
C           -7.07894095206508       -4.78551098438416        0.14370120183874
H           -5.28134854965606       -3.61489759901805        0.17639683755058
C           -8.14040801909712       -5.24422966122379        0.95631092948730
O           -6.99827428608414       -5.08330862731578       -1.11487602970898
C           -8.21843100883822       -4.91764077453925        2.29346046765721
H           -8.89963839765440       -5.86481882579795        0.49451364347591
C           -7.24796543978069       -4.12174192280786        2.89230136330511
H           -5.43582761407272       -3.04226129233805        2.56695910587560
H           -9.85681136144845       -5.89876190609355        2.53534846518347
O           -8.97750473609160       -6.48132625357689       -2.11747254242132
H           -8.21996280171105       -5.96141340131000       -1.71044034486567
H           -8.87160760460224       -6.35900006637889       -3.06595321815405

          :  Hamiltonian                  GFN2-xTB          :
         :: gradient norm              0.000260797458 Eh/a0 ::
         :: HOMO-LUMO gap              3.714122031669 eV    ::
         :: SCC energy               -29.256933247334 Eh    ::
         :: -> dispersion             -0.012354988132 Eh    ::
         :: -> Gsolv                  -0.106118566011 Eh    ::
         :: repulsion energy           0.341282284000 Eh    ::

    * Orbital Energies and Occupations

         #    Occupation            Energy/Eh            Energy/eV
      -------------------------------------------------------------
         1        2.0000           -0.6902609             -18.7830
       ...           ...                  ...                  ...
        13        2.0000           -0.4887150             -13.2986
        14        2.0000           -0.4818296             -13.1112
        15        2.0000           -0.4625459             -12.5865
        16        2.0000           -0.4594731             -12.5029
        17        2.0000           -0.4529281             -12.3248
        18        2.0000           -0.4497690             -12.2388
        19        2.0000           -0.4173290             -11.3561
        20        2.0000           -0.4119303             -11.2092
        21        2.0000           -0.4075820             -11.0909
        22        2.0000           -0.4060825             -11.0501
        23        2.0000           -0.3608402              -9.8190
        24        2.0000           -0.3405360              -9.2665
        25        2.0000           -0.3233682              -8.7993 (HOMO)
        26                         -0.1868767              -5.0852 (LUMO)
        27                         -0.1696360              -4.6160
        28                         -0.0523619              -1.4248
        29                          0.0832211               2.2646
        30                          0.1182476               3.2177
        31                          0.1458993               3.9701
        32                          0.1756398               4.7794
        33                          0.1860430               5.0625
        34                          0.2134655               5.8087
        35                          0.2236936               6.0870
        36                          0.2622854               7.1371
       ...                                ...                  ...
        43                          0.7028891              19.1266
      -------------------------------------------------------------
                  HL-Gap            0.1364915 Eh            3.7141 eV

     #   Z          covCN         q      C6AA      α(0)
     1   6 C        2.917    -0.050    29.231     8.866
     2   6 C        2.918    -0.103    30.609     9.073
     3   8 O        1.658    -0.479    22.452     6.396
     4   1 H        0.926     0.019     2.751     2.594
     5   6 C        2.835     0.161    24.506     8.112
     6   1 H        0.925    -0.013     3.286     2.835
     7   6 C        2.918    -0.135    31.456     9.197
     8   8 O        0.858    -0.711    29.003     7.220
     9   6 C        2.843     0.121    25.336     8.249
    10   1 H        0.925     0.003     3.012     2.714
    11   6 C        2.917    -0.099    30.483     9.054
    12   1 H        0.925     0.012     2.857     2.643
    13   1 H        0.805     0.354     0.580     1.196
    14   8 O        1.603    -0.718    28.209     7.168
    15   1 H        0.799     0.302     0.715     1.329
    16   1 H        0.805     0.336     0.622     1.239

Wiberg/Mayer (AO) data.
largest (>0.10) Wiberg bond orders for each atom

     #   Z sym  total        # sym  WBO       # sym  WBO       # sym  WBO
 ---------------------------------------------------------------------------
     1   6 C    3.990 --     2 C    1.488    11 C    1.413    12 H    0.971
     2   6 C    3.977 --     1 C    1.488     5 C    1.266     6 H    0.972
     3   8 O    2.036 --     9 C    1.036    13 H    0.855
     4   1 H    1.000 --    11 C    0.971
     5   6 C    3.964 --     8 O    1.312     7 C    1.278     2 C    1.266
     6   1 H    1.000 --     2 C    0.972
     7   6 C    3.967 --     9 C    1.430     5 C    1.278    10 H    0.964
     8   8 O    1.729 --     5 C    1.312    15 H    0.101
     9   6 C    3.933 --     7 C    1.430    11 C    1.352     3 O    1.036
    10   1 H    1.000 --     7 C    0.964
    11   6 C    3.971 --     1 C    1.413     9 C    1.352     4 H    0.971
    12   1 H    1.000 --     1 C    0.971
    13   1 H    0.875 --     3 O    0.855
    14   8 O    1.741 --    16 H    0.886    15 H    0.802
    15   1 H    0.909 --    14 O    0.802     8 O    0.101
    16   1 H    0.887 --    14 O    0.886
 ---------------------------------------------------------------------------

molecular dipole:
                 x           y           z       tot (Debye)
 q only:       13.919       9.596      -0.015
   full:       14.008       9.654      -0.145      43.243

 projected vibrational frequencies (cm⁻¹)
eigval :       -0.00    -0.00    -0.00     0.00     0.00     0.00
eigval :       38.62    67.34    84.08   203.11   215.23   221.03
eigval :      350.90   380.66   421.13   476.29   504.33   523.31
eigval :      565.10   595.06   652.90   750.80   764.30   812.16
eigval :      839.24   860.19   902.95   973.84   989.20  1102.17
eigval :     1119.07  1165.00  1190.61  1268.20  1305.18  1352.64
eigval :     1459.15  1492.43  1545.48  1553.31  1608.26  2684.17
eigval :     3023.28  3035.78  3043.40  3088.61  3469.30  3615.58

   temp. (K)  partition function   enthalpy   heat capacity  entropy
                                   cal/mol     cal/K/mol   cal/K/mol   J/K/mol
 298.15  VIB   743.                 4286.407     27.897     26.073
         ROT  0.625E+06              888.752      2.981     29.500
         INT  0.464E+09             5175.159     30.878     55.573
         TR   0.139E+28             1481.254      4.968     40.415
         TOT                        6656.4129    35.8459    95.9879   401.6134

       T/K    H(0)-H(T)+PV         H(T)/Eh          T*S/Eh         G(T)/Eh
   ------------------------------------------------------------------------
    298.15    0.106077E-01    0.125230E+00    0.456070E-01    0.796230E-01
   ------------------------------------------------------------------------

         :::::::::::::::::::::::::::::::::::::::::::::::::::::
         ::                  THERMODYNAMIC                  ::
         :::::::::::::::::::::::::::::::::::::::::::::::::::::
         :: total free energy         -28.836027985393 Eh   ::
         ::.................................................::
         :: total energy              -28.915650962981 Eh   ::
         :: zero point energy           0.114622263205 Eh   ::
         :: G(RRHO) w/o ZPVE           -0.034999285617 Eh   ::
         :: G(RRHO) contrib.            0.079622977588 Eh   ::
         :::::::::::::::::::::::::::::::::::::::::::::::::::::

           -------------------------------------------------
          | TOTAL ENERGY              -28.915650962981 Eh   |
          | TOTAL ENTHALPY            -28.790421030647 Eh   |
          | TOTAL FREE ENERGY         -28.836027985393 Eh   |
          | GRADIENT NORM               0.000261007292 Eh/α |
          | HOMO-LUMO GAP               3.714121405660 eV   |
           -------------------------------------------------

 * finished run on 2025/10/18 at 02:59:21.346
normal termination of xtb
