   * xtb version 6.7.1 (edcfbbe) compiled by 'albert@albert-system' on 2024-07-22

   ID    Z sym.   atoms
    1    6 C      1, 2, 5, 7, 9, 11
    2    8 O      3, 8, 14
    3    1 H      4, 6, 10, 12, 13, 15, 16

          program call               : xtb tb_lite_results_shiftn0p15_gp480_b0_rot180_complex.xyz --ohess --chrg -1 --alpb water
      * Solvation model:               ALPB
        Solvent                        water
        Solvent mass                       1.8000E+01 g/mol
          :  Hamiltonian                  GFN2-xTB          :
 * total energy  :   -28.9073422 Eh     change       -0.4652350E-09 Eh
 * total energy  :   -28.9139804 Eh     change       -0.6638223E-02 Eh
 * total energy  :   -28.9146472 Eh     change       -0.6667289E-03 Eh
 * total energy  :   -28.9148122 Eh     change       -0.1650599E-03 Eh
 * total energy  :   -28.9150615 Eh     change       -0.2492139E-03 Eh
 * total energy  :   -28.9151748 Eh     change       -0.1133137E-03 Eh
 * total energy  :   -28.9152612 Eh     change       -0.8647215E-04 Eh
 * total energy  :   -28.9153471 Eh     change       -0.8589662E-04 Eh
 * total energy  :   -28.9153935 Eh     change       -0.4632202E-04 Eh
 * total energy  :   -28.9154215 Eh     change       -0.2806638E-04 Eh
 * total energy  :   -28.9154444 Eh     change       -0.2287585E-04 Eh
 * total energy  :   -28.9154577 Eh     change       -0.1334689E-04 Eh
 * total energy  :   -28.9154657 Eh     change       -0.7930016E-05 Eh
 * total energy  :   -28.9154727 Eh     change       -0.7019152E-05 Eh
 * total energy  :   -28.9154899 Eh     change       -0.1718953E-04 Eh
 * total energy  :   -28.9155071 Eh     change       -0.1718425E-04 Eh
 * total energy  :   -28.9155197 Eh     change       -0.1259632E-04 Eh
 * total energy  :   -28.9155339 Eh     change       -0.1424235E-04 Eh
 * total energy  :   -28.9155379 Eh     change       -0.4023793E-05 Eh
   *** GEOMETRY OPTIMIZATION CONVERGED AFTER 19 ITERATIONS ***

 final structure:
================
16
 xtb: 6.7.1 (edcfbbe)
C           -6.36383031400881       -3.47434144408416        2.01264063096874
C           -5.98165632411397       -4.03039544006725        0.81456829311011
O           -9.36976044364496       -5.35859911693400        2.79176333664084
H           -7.80273977144793       -3.48187176519711        3.62284704331601
C           -6.72928268933128       -5.07211378514722        0.21453990654419
H           -5.09562738640936       -3.68312688046310        0.29740444942942
C           -7.88043678286899       -5.50024189649471        0.91406515068956
O           -6.37392514971933       -5.60031263986572       -0.91346102024967
C           -8.24792237708185       -4.93234858198391        2.11528307111250
H           -8.47434325940595       -6.29357452296512        0.47507182672410
C           -7.49484887694195       -3.91074188027130        2.68279967567205
H           -5.76825924707143       -2.67938256479878        2.44183474521092
H           -9.79254881107794       -6.06684029355857        2.28449608468272
O           -7.85648367857563       -7.56378820151583       -1.82770811325581
H           -7.32381630629567       -6.78229305947268       -1.48982443147302
H           -7.19478000967705       -8.19909253644335       -2.11820588473188

          :  Hamiltonian                  GFN2-xTB          :
         :: gradient norm              0.000846406914 Eh/a0 ::
         :: HOMO-LUMO gap              3.712599523994 eV    ::
         :: SCC energy               -29.257121220771 Eh    ::
         :: -> dispersion             -0.012354680185 Eh    ::
         :: -> Gsolv                  -0.105917101901 Eh    ::
         :: repulsion energy           0.341583291327 Eh    ::

    * Orbital Energies and Occupations

         #    Occupation            Energy/Eh            Energy/eV
      -------------------------------------------------------------
         1        2.0000           -0.6904167             -18.7872
       ...           ...                  ...                  ...
        13        2.0000           -0.4891301             -13.3099
        14        2.0000           -0.4817946             -13.1103
        15        2.0000           -0.4625805             -12.5875
        16        2.0000           -0.4596257             -12.5071
        17        2.0000           -0.4530642             -12.3285
        18        2.0000           -0.4500221             -12.2457
        19        2.0000           -0.4175866             -11.3631
        20        2.0000           -0.4120388             -11.2121
        21        2.0000           -0.4077540             -11.0956
        22        2.0000           -0.4059661             -11.0469
        23        2.0000           -0.3609675              -9.8224
        24        2.0000           -0.3404676              -9.2646
        25        2.0000           -0.3233765              -8.7995 (HOMO)
        26                         -0.1869408              -5.0869 (LUMO)
        27                         -0.1696299              -4.6159
        28                         -0.0523912              -1.4256
        29                          0.0833170               2.2672
        30                          0.1193048               3.2464
        31                          0.1452855               3.9534
        32                          0.1751860               4.7671
        33                          0.1857720               5.0551
        34                          0.2135257               5.8103
        35                          0.2231225               6.0715
        36                          0.2625465               7.1443
       ...                                ...                  ...
        43                          0.7032459              19.1363
      -------------------------------------------------------------
                  HL-Gap            0.1364356 Eh            3.7126 eV

     #   Z          covCN         q      C6AA      α(0)
     1   6 C        2.917    -0.050    29.231     8.866
     2   6 C        2.918    -0.104    30.612     9.073
     3   8 O        1.658    -0.480    22.457     6.397
     4   1 H        0.926     0.019     2.754     2.595
     5   6 C        2.835     0.162    24.502     8.112
     6   1 H        0.925    -0.013     3.292     2.837
     7   6 C        2.918    -0.135    31.467     9.199
     8   8 O        0.858    -0.711    29.007     7.221
     9   6 C        2.843     0.121    25.338     8.250
    10   1 H        0.925     0.003     3.014     2.715
    11   6 C        2.917    -0.099    30.487     9.054
    12   1 H        0.925     0.012     2.862     2.645
    13   1 H        0.805     0.354     0.579     1.196
    14   8 O        1.603    -0.717    28.179     7.164
    15   1 H        0.799     0.303     0.714     1.327
    16   1 H        0.805     0.336     0.622     1.239

Wiberg/Mayer (AO) data.
largest (>0.10) Wiberg bond orders for each atom

     #   Z sym  total        # sym  WBO       # sym  WBO       # sym  WBO
 ---------------------------------------------------------------------------
     1   6 C    3.990 --     2 C    1.489    11 C    1.412    12 H    0.971
     2   6 C    3.977 --     1 C    1.489     5 C    1.265     6 H    0.972
     3   8 O    2.036 --     9 C    1.036    13 H    0.855
     4   1 H    1.000 --    11 C    0.971
     5   6 C    3.964 --     8 O    1.313     7 C    1.277     2 C    1.265
     6   1 H    1.000 --     2 C    0.972
     7   6 C    3.967 --     9 C    1.430     5 C    1.277    10 H    0.964
     8   8 O    1.728 --     5 C    1.313
     9   6 C    3.933 --     7 C    1.430    11 C    1.352     3 O    1.036
    10   1 H    1.000 --     7 C    0.964
    11   6 C    3.971 --     1 C    1.412     9 C    1.352     4 H    0.971
    12   1 H    1.000 --     1 C    0.971
    13   1 H    0.875 --     3 O    0.855
    14   8 O    1.742 --    16 H    0.886    15 H    0.804
    15   1 H    0.908 --    14 O    0.804
    16   1 H    0.887 --    14 O    0.886
 ---------------------------------------------------------------------------

molecular dipole:
                 x           y           z       tot (Debye)
 q only:       13.322       9.943       0.146
   full:       13.479       9.914       0.115      42.530

 projected vibrational frequencies (cm⁻¹)
eigval :       -0.00    -0.00    -0.00     0.00     0.00     0.00
eigval :       34.16    66.45   144.66   202.56   216.04   219.73
eigval :      353.21   391.39   423.40   478.28   506.54   523.49
eigval :      554.44   595.18   652.75   750.57   764.70   813.06
eigval :      841.30   864.88   904.14   974.02   990.21  1104.05
eigval :     1123.43  1165.17  1190.79  1269.36  1304.85  1354.02
eigval :     1459.76  1493.15  1540.52  1553.38  1609.16  2699.65
eigval :     3024.11  3035.51  3044.56  3091.34  3471.94  3616.89

   temp. (K)  partition function   enthalpy   heat capacity  entropy
                                   cal/mol     cal/K/mol   cal/K/mol   J/K/mol
 298.15  VIB   552.                 4214.212     27.810     25.083
         ROT  0.625E+06              888.752      2.981     29.503
         INT  0.345E+09             5102.965     30.791     54.586
         TR   0.139E+28             1481.254      4.968     40.415
         TOT                        6584.2188    35.7592    95.0005   397.4821

       T/K    H(0)-H(T)+PV         H(T)/Eh          T*S/Eh         G(T)/Eh
   ------------------------------------------------------------------------
    298.15    0.104926E-01    0.125351E+00    0.451378E-01    0.802127E-01
   ------------------------------------------------------------------------

         :::::::::::::::::::::::::::::::::::::::::::::::::::::
         ::                  THERMODYNAMIC                  ::
         :::::::::::::::::::::::::::::::::::::::::::::::::::::
         :: total free energy         -28.835325219987 Eh   ::
         ::.................................................::
         :: total energy              -28.915537928436 Eh   ::
         :: zero point energy           0.114857886452 Eh   ::
         :: G(RRHO) w/o ZPVE           -0.034645178003 Eh   ::
         :: G(RRHO) contrib.            0.080212708448 Eh   ::
         :::::::::::::::::::::::::::::::::::::::::::::::::::::

           -------------------------------------------------
          | TOTAL ENERGY              -28.915537928436 Eh   |
          | TOTAL ENTHALPY            -28.790187421481 Eh   |
          | TOTAL FREE ENERGY         -28.835325219987 Eh   |
          | GRADIENT NORM               0.000846745935 Eh/α |
          | HOMO-LUMO GAP               3.712602467920 eV   |
           -------------------------------------------------

 * finished run on 2025/10/18 at 02:59:13.461
normal termination of xtb
