   * xtb version 6.7.1 (edcfbbe) compiled by 'albert@albert-system' on 2024-07-22

   ID    Z sym.   atoms
    1    8 O      1-3
    2    1 H      4, 5

          program call               : xtb tb_lite_results_shiftn0p15_gp115_b0_rot180_complex.xyz --ohess --chrg -1 --alpb water
      * Solvation model:               ALPB
        Solvent                        water
        Solvent mass                       1.8000E+01 g/mol
          :  Hamiltonian                  GFN2-xTB          :
 * total energy  :   -13.3824458 Eh     change       -0.2957634E-11 Eh
 * total energy  :   -13.3841006 Eh     change       -0.1654774E-02 Eh
 * total energy  :   -13.3843035 Eh     change       -0.2029139E-03 Eh
 * total energy  :   -13.3843423 Eh     change       -0.3885529E-04 Eh
 * total energy  :   -13.3843837 Eh     change       -0.4141156E-04 Eh
 * total energy  :   -13.3843856 Eh     change       -0.1851437E-05 Eh
   *** GEOMETRY OPTIMIZATION CONVERGED AFTER 6 ITERATIONS ***

 final structure:
================
5
 xtb: 6.7.1 (edcfbbe)
O           -3.01825743871437       -4.42433689492671        2.77685021038376
O           -4.14223579209066       -5.11402500782340        2.59211535098496
O           -3.68040578213004       -7.81357081251772        2.08317236872918
H           -3.88422992411805       -6.87185881357922        2.24854942584867
H           -2.73281145711727       -7.90297375258736        2.23145180499269

          :  Hamiltonian                  GFN2-xTB          :
         :: gradient norm              0.000367169704 Eh/a0 ::
         :: HOMO-LUMO gap             10.021891867135 eV    ::
         :: SCC energy               -13.417775054861 Eh    ::
         :: -> dispersion             -0.001136576262 Eh    ::
         :: -> Gsolv                  -0.124608018579 Eh    ::
         :: repulsion energy           0.033389462730 Eh    ::

    * Orbital Energies and Occupations

         #    Occupation            Energy/Eh            Energy/eV
      -------------------------------------------------------------
         1        2.0000           -0.6694255             -18.2160
         2        2.0000           -0.6602882             -17.9674
         3        2.0000           -0.6318716             -17.1941
         4        2.0000           -0.5429768             -14.7752
         5        2.0000           -0.5194779             -14.1357
         6        2.0000           -0.5048724             -13.7383
         7        2.0000           -0.4974982             -13.5376
         8        2.0000           -0.4831800             -13.1480
         9        2.0000           -0.4259024             -11.5894
        10        1.8240           -0.3553325              -9.6691
        11        1.1760           -0.3523992              -9.5893 (HOMO)
        12                          0.0158986               0.4326 (LUMO)
        13                          0.1285137               3.4970
        14                          0.2915421               7.9333
      -------------------------------------------------------------
                  HL-Gap            0.3682978 Eh           10.0219 eV

     #   Z          covCN         q      C6AA      α(0)
     1   8 O        0.967    -0.486    23.419     6.491
     2   8 O        0.967    -0.482    23.339     6.480
     3   8 O        1.608    -0.687    27.364     7.060
     4   1 H        0.803     0.305     0.708     1.322
     5   1 H        0.805     0.351     0.586     1.202

Wiberg/Mayer (AO) data.
largest (>0.10) Wiberg bond orders for each atom

     #   Z sym  total        # sym  WBO       # sym  WBO       # sym  WBO
 ---------------------------------------------------------------------------
     1   8 O    1.356 --     2 O    1.353
     2   8 O    1.417 --     1 O    1.353
     3   8 O    1.759 --     5 H    0.877     4 H    0.861
     4   1 H    0.907 --     3 O    0.861
     5   1 H    0.877 --     3 O    0.877
 ---------------------------------------------------------------------------

molecular dipole:
                 x           y           z       tot (Debye)
 q only:        7.279       9.674      -4.844
   full:        7.399       9.865      -4.783      33.619

 projected vibrational frequencies (cm⁻¹)
eigval :       -0.00    -0.00     0.00     0.00     0.00     0.00
eigval :       30.62    81.40   206.18   379.50   628.19  1340.09
eigval :     1502.97  3246.36  3593.84

   temp. (K)  partition function   enthalpy   heat capacity  entropy
                                   cal/mol     cal/K/mol   cal/K/mol   J/K/mol
 298.15  VIB   44.6                 1686.420      7.475     11.557
         ROT  0.292E+05              888.752      2.981     23.412
         INT  0.130E+07             2575.173     10.456     34.969
         TR   0.342E+27             1481.254      4.968     37.636
         TOT                        4056.4265    15.4244    72.6042   303.7762

       T/K    H(0)-H(T)+PV         H(T)/Eh          T*S/Eh         G(T)/Eh
   ------------------------------------------------------------------------
    298.15    0.646433E-02    0.315450E-01    0.344966E-01   -0.295163E-02
   ------------------------------------------------------------------------

         :::::::::::::::::::::::::::::::::::::::::::::::::::::
         ::                  THERMODYNAMIC                  ::
         :::::::::::::::::::::::::::::::::::::::::::::::::::::
         :: total free energy         -13.387337224593 Eh   ::
         ::.................................................::
         :: total energy              -13.384385594633 Eh   ::
         :: zero point energy           0.025080664814 Eh   ::
         :: G(RRHO) w/o ZPVE           -0.028032294774 Eh   ::
         :: G(RRHO) contrib.           -0.002951629960 Eh   ::
         :::::::::::::::::::::::::::::::::::::::::::::::::::::

           -------------------------------------------------
          | TOTAL ENERGY              -13.384385594633 Eh   |
          | TOTAL ENTHALPY            -13.352840602660 Eh   |
          | TOTAL FREE ENERGY         -13.387337224593 Eh   |
          | GRADIENT NORM               0.000367187437 Eh/α |
          | HOMO-LUMO GAP              10.021892041930 eV   |
           -------------------------------------------------

 * finished run on 2025/10/18 at 05:08:38.689
normal termination of xtb
