   * xtb version 6.7.1 (edcfbbe) compiled by 'albert@albert-system' on 2024-07-22

   ID    Z sym.   atoms
    1    8 O      1-3
    2    1 H      4, 5

          program call               : xtb tb_lite_results_shiftn0p15_gp124_b0_rot0_complex.xyz --ohess --chrg -1 --alpb water
      * Solvation model:               ALPB
        Solvent                        water
        Solvent mass                       1.8000E+01 g/mol
          :  Hamiltonian                  GFN2-xTB          :
 * total energy  :   -13.3823588 Eh     change       -0.2910738E-10 Eh
 * total energy  :   -13.3840743 Eh     change       -0.1715491E-02 Eh
 * total energy  :   -13.3842964 Eh     change       -0.2220799E-03 Eh
 * total energy  :   -13.3843441 Eh     change       -0.4771317E-04 Eh
 * total energy  :   -13.3843894 Eh     change       -0.4532417E-04 Eh
 * total energy  :   -13.3843971 Eh     change       -0.7700225E-05 Eh
 * total energy  :   -13.3843998 Eh     change       -0.2630262E-05 Eh
   *** GEOMETRY OPTIMIZATION CONVERGED AFTER 7 ITERATIONS ***

 final structure:
================
5
 xtb: 6.7.1 (edcfbbe)
O           -2.88934391197532       -4.63419153096211        2.78536446690241
O           -4.08037325266063       -5.20321206628463        2.61045926958151
O           -6.05381983622563       -3.34149640629265        1.97649971328438
H           -5.39252982332455       -4.02814825718677        2.19233774913995
H           -5.58094558006567       -2.50357879145696        2.02462738519631

          :  Hamiltonian                  GFN2-xTB          :
         :: gradient norm              0.000516176508 Eh/a0 ::
         :: HOMO-LUMO gap             10.028436269956 eV    ::
         :: SCC energy               -13.417805977989 Eh    ::
         :: -> dispersion             -0.001138436888 Eh    ::
         :: -> Gsolv                  -0.124545651508 Eh    ::
         :: repulsion energy           0.033406207182 Eh    ::

    * Orbital Energies and Occupations

         #    Occupation            Energy/Eh            Energy/eV
      -------------------------------------------------------------
         1        2.0000           -0.6694620             -18.2170
         2        2.0000           -0.6602654             -17.9667
         3        2.0000           -0.6318652             -17.1939
         4        2.0000           -0.5429125             -14.7734
         5        2.0000           -0.5195111             -14.1366
         6        2.0000           -0.5049614             -13.7407
         7        2.0000           -0.4975213             -13.5382
         8        2.0000           -0.4831415             -13.1469
         9        2.0000           -0.4258934             -11.5892
        10        1.8253           -0.3553373              -9.6692
        11        1.1747           -0.3523867              -9.5889 (HOMO)
        12                          0.0161515               0.4395 (LUMO)
        13                          0.1285106               3.4970
        14                          0.2914460               7.9306
      -------------------------------------------------------------
                  HL-Gap            0.3685382 Eh           10.0284 eV

     #   Z          covCN         q      C6AA      α(0)
     1   8 O        0.967    -0.486    23.418     6.491
     2   8 O        0.967    -0.482    23.340     6.480
     3   8 O        1.608    -0.687    27.363     7.060
     4   1 H        0.803     0.305     0.707     1.321
     5   1 H        0.805     0.351     0.587     1.203

Wiberg/Mayer (AO) data.
largest (>0.10) Wiberg bond orders for each atom

     #   Z sym  total        # sym  WBO       # sym  WBO       # sym  WBO
 ---------------------------------------------------------------------------
     1   8 O    1.357 --     2 O    1.354
     2   8 O    1.418 --     1 O    1.354
     3   8 O    1.759 --     5 H    0.877     4 H    0.861
     4   1 H    0.907 --     3 O    0.861
     5   1 H    0.877 --     3 O    0.877
 ---------------------------------------------------------------------------

molecular dipole:
                 x           y           z       tot (Debye)
 q only:        7.429       9.359      -4.900
   full:        7.656       9.354      -4.845      33.100

 projected vibrational frequencies (cm⁻¹)
eigval :       -0.00    -0.00     0.00     0.00     0.00     0.00
eigval :       71.33   110.66   209.00   418.40   637.51  1340.95
eigval :     1510.43  3250.11  3595.68

   temp. (K)  partition function   enthalpy   heat capacity  entropy
                                   cal/mol     cal/K/mol   cal/K/mol   J/K/mol
 298.15  VIB   15.8                 1567.994      8.091     10.547
         ROT  0.292E+05              888.752      2.981     23.416
         INT  0.463E+06             2456.746     11.071     33.963
         TR   0.342E+27             1481.254      4.968     37.636
         TOT                        3938.0000    16.0396    71.5989   299.5697

       T/K    H(0)-H(T)+PV         H(T)/Eh          T*S/Eh         G(T)/Eh
   ------------------------------------------------------------------------
    298.15    0.627560E-02    0.316636E-01    0.340189E-01   -0.235530E-02
   ------------------------------------------------------------------------

         :::::::::::::::::::::::::::::::::::::::::::::::::::::
         ::                  THERMODYNAMIC                  ::
         :::::::::::::::::::::::::::::::::::::::::::::::::::::
         :: total free energy         -13.386755068900 Eh   ::
         ::.................................................::
         :: total energy              -13.384399770903 Eh   ::
         :: zero point energy           0.025388036880 Eh   ::
         :: G(RRHO) w/o ZPVE           -0.027743334877 Eh   ::
         :: G(RRHO) contrib.           -0.002355297997 Eh   ::
         :::::::::::::::::::::::::::::::::::::::::::::::::::::

           -------------------------------------------------
          | TOTAL ENERGY              -13.384399770903 Eh   |
          | TOTAL ENTHALPY            -13.352736131543 Eh   |
          | TOTAL FREE ENERGY         -13.386755068900 Eh   |
          | GRADIENT NORM               0.000516235014 Eh/α |
          | HOMO-LUMO GAP              10.028436187140 eV   |
           -------------------------------------------------

 * finished run on 2025/10/18 at 05:08:36.151
normal termination of xtb
