   * xtb version 6.7.1 (edcfbbe) compiled by 'albert@albert-system' on 2024-07-22

   ID    Z sym.   atoms
    1    8 O      1-3
    2    1 H      4, 5

          program call               : xtb tb_lite_results_shiftn0p15_gp53_b0_rot270_complex.xyz --ohess --chrg -1 --alpb water
      * Solvation model:               ALPB
        Solvent                        water
        Solvent mass                       1.8000E+01 g/mol
          :  Hamiltonian                  GFN2-xTB          :
 * total energy  :   -13.3822450 Eh     change       -0.7535306E-10 Eh
 * total energy  :   -13.3839861 Eh     change       -0.1741130E-02 Eh
 * total energy  :   -13.3842405 Eh     change       -0.2543885E-03 Eh
 * total energy  :   -13.3843112 Eh     change       -0.7063924E-04 Eh
 * total energy  :   -13.3843719 Eh     change       -0.6074610E-04 Eh
 * total energy  :   -13.3843850 Eh     change       -0.1308533E-04 Eh
 * total energy  :   -13.3843910 Eh     change       -0.5945569E-05 Eh
 * total energy  :   -13.3843939 Eh     change       -0.2986408E-05 Eh
   *** GEOMETRY OPTIMIZATION CONVERGED AFTER 8 ITERATIONS ***

 final structure:
================
5
 xtb: 6.7.1 (edcfbbe)
O           -3.08273637059808       -4.56213641991082        2.70145897470775
O           -4.25453444433020       -5.12682050837943        2.41629148378900
O           -1.90782454791099       -5.58352167032250        5.01621833963172
H           -2.28029181762605       -5.20173457458528        4.19747854839930
H           -2.57188271698215       -6.20222819250290        5.33928129979880

          :  Hamiltonian                  GFN2-xTB          :
         :: gradient norm              0.000621053919 Eh/a0 ::
         :: HOMO-LUMO gap             10.017358199620 eV    ::
         :: SCC energy               -13.417824278248 Eh    ::
         :: -> dispersion             -0.001134537347 Eh    ::
         :: -> Gsolv                  -0.124696729723 Eh    ::
         :: repulsion energy           0.033430341646 Eh    ::

    * Orbital Energies and Occupations

         #    Occupation            Energy/Eh            Energy/eV
      -------------------------------------------------------------
         1        2.0000           -0.6692967             -18.2125
         2        2.0000           -0.6603684             -17.9695
         3        2.0000           -0.6317999             -17.1921
         4        2.0000           -0.5429768             -14.7751
         5        2.0000           -0.5194105             -14.1339
         6        2.0000           -0.5047453             -13.7348
         7        2.0000           -0.4973713             -13.5342
         8        2.0000           -0.4833103             -13.1515
         9        2.0000           -0.4260023             -11.5921
        10        1.8242           -0.3552494              -9.6668
        11        1.1758           -0.3523135              -9.5869 (HOMO)
        12                          0.0158176               0.4304 (LUMO)
        13                          0.1284081               3.4942
        14                          0.2916677               7.9367
      -------------------------------------------------------------
                  HL-Gap            0.3681311 Eh           10.0174 eV

     #   Z          covCN         q      C6AA      α(0)
     1   8 O        0.967    -0.483    23.346     6.481
     2   8 O        0.967    -0.486    23.425     6.492
     3   8 O        1.608    -0.687    27.358     7.059
     4   1 H        0.803     0.305     0.708     1.321
     5   1 H        0.805     0.351     0.585     1.202

Wiberg/Mayer (AO) data.
largest (>0.10) Wiberg bond orders for each atom

     #   Z sym  total        # sym  WBO       # sym  WBO       # sym  WBO
 ---------------------------------------------------------------------------
     1   8 O    1.416 --     2 O    1.353
     2   8 O    1.356 --     1 O    1.353
     3   8 O    1.759 --     5 H    0.877     4 H    0.862
     4   1 H    0.907 --     3 O    0.862
     5   1 H    0.877 --     3 O    0.877
 ---------------------------------------------------------------------------

molecular dipole:
                 x           y           z       tot (Debye)
 q only:        6.179       9.009      -5.235
   full:        5.981       8.985      -5.359      30.630

 projected vibrational frequencies (cm⁻¹)
eigval :       -0.00    -0.00    -0.00     0.00     0.00     0.00
eigval :       58.42    85.26   205.76   377.56   609.12  1340.48
eigval :     1500.73  3254.32  3593.37

   temp. (K)  partition function   enthalpy   heat capacity  entropy
                                   cal/mol     cal/K/mol   cal/K/mol   J/K/mol
 298.15  VIB   24.2                 1652.629      8.052     11.403
         ROT  0.292E+05              888.752      2.981     23.415
         INT  0.707E+06             2541.382     11.033     34.818
         TR   0.342E+27             1481.254      4.968     37.636
         TOT                        4022.6357    16.0015    72.4535   303.1456

       T/K    H(0)-H(T)+PV         H(T)/Eh          T*S/Eh         G(T)/Eh
   ------------------------------------------------------------------------
    298.15    0.641048E-02    0.315274E-01    0.344250E-01   -0.289766E-02
   ------------------------------------------------------------------------

         :::::::::::::::::::::::::::::::::::::::::::::::::::::
         ::                  THERMODYNAMIC                  ::
         :::::::::::::::::::::::::::::::::::::::::::::::::::::
         :: total free energy         -13.387291591879 Eh   ::
         ::.................................................::
         :: total energy              -13.384393935966 Eh   ::
         :: zero point energy           0.025116877654 Eh   ::
         :: G(RRHO) w/o ZPVE           -0.028014533568 Eh   ::
         :: G(RRHO) contrib.           -0.002897655913 Eh   ::
         :::::::::::::::::::::::::::::::::::::::::::::::::::::

           -------------------------------------------------
          | TOTAL ENERGY              -13.384393935966 Eh   |
          | TOTAL ENTHALPY            -13.352866580275 Eh   |
          | TOTAL FREE ENERGY         -13.387291591879 Eh   |
          | GRADIENT NORM               0.000621110109 Eh/α |
          | HOMO-LUMO GAP              10.017358182253 eV   |
           -------------------------------------------------

 * finished run on 2025/10/18 at 05:08:35.423
normal termination of xtb
