   * xtb version 6.7.1 (edcfbbe) compiled by 'albert@albert-system' on 2024-07-22

   ID    Z sym.   atoms
    1    8 O      1-3
    2    1 H      4, 5

          program call               : xtb tb_lite_results_shiftn0p15_gp121_b0_rot0_complex.xyz --ohess --chrg -1 --alpb water
      * Solvation model:               ALPB
        Solvent                        water
        Solvent mass                       1.8000E+01 g/mol
          :  Hamiltonian                  GFN2-xTB          :
 * total energy  :   -13.3821408 Eh     change       -0.2328804E-11 Eh
 * total energy  :   -13.3839457 Eh     change       -0.1804898E-02 Eh
 * total energy  :   -13.3842471 Eh     change       -0.3014701E-03 Eh
 * total energy  :   -13.3843271 Eh     change       -0.7992336E-04 Eh
 * total energy  :   -13.3843744 Eh     change       -0.4732588E-04 Eh
 * total energy  :   -13.3843905 Eh     change       -0.1611926E-04 Eh
 * total energy  :   -13.3843969 Eh     change       -0.6367193E-05 Eh
 * total energy  :   -13.3843994 Eh     change       -0.2486281E-05 Eh
   *** GEOMETRY OPTIMIZATION CONVERGED AFTER 8 ITERATIONS ***

 final structure:
================
5
 xtb: 6.7.1 (edcfbbe)
O           -2.84087865849831       -4.67788943241898        2.71037293142100
O           -4.06609432866605       -5.18419083644816        2.58369716359474
O           -6.07932519178328       -3.33610276634415        3.13687112981192
H           -5.40180000557798       -4.01700257461177        2.95706673864082
H           -5.60891421972618       -2.49544144236006        3.13794498106831

          :  Hamiltonian                  GFN2-xTB          :
         :: gradient norm              0.000649476936 Eh/a0 ::
         :: HOMO-LUMO gap             10.016076148973 eV    ::
         :: SCC energy               -13.417826198536 Eh    ::
         :: -> dispersion             -0.001134497532 Eh    ::
         :: -> Gsolv                  -0.124766263818 Eh    ::
         :: repulsion energy           0.033426846628 Eh    ::

    * Orbital Energies and Occupations

         #    Occupation            Energy/Eh            Energy/eV
      -------------------------------------------------------------
         1        2.0000           -0.6693055             -18.2127
         2        2.0000           -0.6603406             -17.9688
         3        2.0000           -0.6318100             -17.1924
         4        2.0000           -0.5429959             -14.7757
         5        2.0000           -0.5194257             -14.1343
         6        2.0000           -0.5047015             -13.7336
         7        2.0000           -0.4973843             -13.5345
         8        2.0000           -0.4832424             -13.1497
         9        2.0000           -0.4259468             -11.5906
        10        1.8227           -0.3552780              -9.6676
        11        1.1773           -0.3523614              -9.5882 (HOMO)
        12                          0.0157226               0.4278 (LUMO)
        13                          0.1284171               3.4944
        14                          0.2918764               7.9424
      -------------------------------------------------------------
                  HL-Gap            0.3680840 Eh           10.0161 eV

     #   Z          covCN         q      C6AA      α(0)
     1   8 O        0.967    -0.486    23.425     6.492
     2   8 O        0.967    -0.483    23.343     6.480
     3   8 O        1.608    -0.687    27.365     7.060
     4   1 H        0.803     0.304     0.708     1.322
     5   1 H        0.805     0.351     0.585     1.201

Wiberg/Mayer (AO) data.
largest (>0.10) Wiberg bond orders for each atom

     #   Z sym  total        # sym  WBO       # sym  WBO       # sym  WBO
 ---------------------------------------------------------------------------
     1   8 O    1.355 --     2 O    1.352
     2   8 O    1.415 --     1 O    1.352
     3   8 O    1.759 --     5 H    0.876     4 H    0.862
     4   1 H    0.907 --     3 O    0.862
     5   1 H    0.876 --     3 O    0.876
 ---------------------------------------------------------------------------

molecular dipole:
                 x           y           z       tot (Debye)
 q only:        7.378       9.389      -5.134
   full:        7.609       9.386      -5.172      33.406

 projected vibrational frequencies (cm⁻¹)
eigval :       -0.00    -0.00     0.00     0.00     0.00     0.00
eigval :       53.27    80.76   207.62   415.80   627.45  1339.98
eigval :     1509.49  3253.39  3594.54

   temp. (K)  partition function   enthalpy   heat capacity  entropy
                                   cal/mol     cal/K/mol   cal/K/mol   J/K/mol
 298.15  VIB   26.3                 1633.463      7.824     11.341
         ROT  0.292E+05              888.752      2.981     23.413
         INT  0.767E+06             2522.215     10.805     34.754
         TR   0.342E+27             1481.254      4.968     37.636
         TOT                        4003.4694    15.7727    72.3893   302.8769

       T/K    H(0)-H(T)+PV         H(T)/Eh          T*S/Eh         G(T)/Eh
   ------------------------------------------------------------------------
    298.15    0.637993E-02    0.316273E-01    0.343945E-01   -0.276719E-02
   ------------------------------------------------------------------------

         :::::::::::::::::::::::::::::::::::::::::::::::::::::
         ::                  THERMODYNAMIC                  ::
         :::::::::::::::::::::::::::::::::::::::::::::::::::::
         :: total free energy         -13.387166547077 Eh   ::
         ::.................................................::
         :: total energy              -13.384399354169 Eh   ::
         :: zero point energy           0.025247367568 Eh   ::
         :: G(RRHO) w/o ZPVE           -0.028014560475 Eh   ::
         :: G(RRHO) contrib.           -0.002767192908 Eh   ::
         :::::::::::::::::::::::::::::::::::::::::::::::::::::

           -------------------------------------------------
          | TOTAL ENERGY              -13.384399354169 Eh   |
          | TOTAL ENTHALPY            -13.352772052064 Eh   |
          | TOTAL FREE ENERGY         -13.387166547077 Eh   |
          | GRADIENT NORM               0.000649519283 Eh/α |
          | HOMO-LUMO GAP              10.016076009687 eV   |
           -------------------------------------------------

 * finished run on 2025/10/18 at 05:08:37.875
normal termination of xtb
