   * xtb version 6.7.1 (edcfbbe) compiled by 'albert@albert-system' on 2024-07-22

   ID    Z sym.   atoms
    1    8 O      1, 2

          program call               : xtb tb_lite_results_shiftn0p15_gp115_b0_rot180_solute.xyz --ohess --chrg -1
          :  Hamiltonian                  GFN2-xTB          :
 * total energy  :    -8.1674299 Eh     change        0.3552714E-14 Eh
 * total energy  :    -8.1676934 Eh     change       -0.2635069E-03 Eh
 * total energy  :    -8.1677069 Eh     change       -0.1351106E-04 Eh
 * total energy  :    -8.1677069 Eh     change       -0.2798273E-07 Eh
   *** GEOMETRY OPTIMIZATION CONVERGED AFTER 4 ITERATIONS ***

 final structure:
================
2
 xtb: 6.7.1 (edcfbbe)
O           -3.00720437576311       -4.53767159292694        2.75377089833204
O           -4.16289766011711       -5.19535645484547        2.57682512775533

          :  Hamiltonian                  GFN2-xTB          :
         :: gradient norm              0.000145957435 Eh/a0 ::
         :: HOMO-LUMO gap              9.863111685166 eV    ::
         :: SCC energy                -8.169817395955 Eh    ::
         :: -> dispersion             -0.000306037871 Eh    ::
         :: repulsion energy           0.002110494025 Eh    ::

    * Orbital Energies and Occupations

         #    Occupation            Energy/Eh            Energy/eV
      -------------------------------------------------------------
         1        2.0000           -0.3925723             -10.6824
         2        2.0000           -0.3578211              -9.7368
         3        2.0000           -0.2456479              -6.6844
         4        2.0000           -0.2212939              -6.0217
         5        2.0000           -0.2212939              -6.0217
         6        1.5000           -0.0803832              -2.1873
         7        1.5000           -0.0803832              -2.1873 (HOMO)
         8                          0.2820795               7.6758 (LUMO)
      -------------------------------------------------------------
                  HL-Gap            0.3624627 Eh            9.8631 eV

     #   Z          covCN         q      C6AA      α(0)
     1   8 O        0.965    -0.500    23.725     6.533
     2   8 O        0.965    -0.500    23.725     6.533

Wiberg/Mayer (AO) data.
largest (>0.10) Wiberg bond orders for each atom

     #   Z sym  total        # sym  WBO       # sym  WBO       # sym  WBO
 ---------------------------------------------------------------------------
     1   8 O    1.250 --     2 O    1.250
     2   8 O    1.250 --     1 O    1.250
 ---------------------------------------------------------------------------

molecular dipole:
                 x           y           z       tot (Debye)
 q only:        6.775       9.196      -5.037
   full:        6.775       9.196      -5.037      31.730

   temp. (K)  partition function   enthalpy   heat capacity  entropy
                                   cal/mol     cal/K/mol   cal/K/mol   J/K/mol
 298.15  VIB   1.00                    6.682      0.142      0.026
         ROT   88.5                  592.502      1.987     10.896
         INT   88.6                  599.183      2.129     10.922
         TR   0.175E+27             1481.254      4.968     36.305
         TOT                        2080.4372     7.0976    47.2266   197.5962

       T/K    H(0)-H(T)+PV         H(T)/Eh          T*S/Eh         G(T)/Eh
   ------------------------------------------------------------------------
    298.15    0.331539E-02    0.630488E-02    0.224389E-01   -0.161340E-01
   ------------------------------------------------------------------------

         :::::::::::::::::::::::::::::::::::::::::::::::::::::
         ::                  THERMODYNAMIC                  ::
         :::::::::::::::::::::::::::::::::::::::::::::::::::::
         :: total free energy          -8.183840909364 Eh   ::
         ::.................................................::
         :: total energy               -8.167706901930 Eh   ::
         :: zero point energy           0.002989494471 Eh   ::
         :: G(RRHO) w/o ZPVE           -0.019123501905 Eh   ::
         :: G(RRHO) contrib.           -0.016134007434 Eh   ::
         :::::::::::::::::::::::::::::::::::::::::::::::::::::

           -------------------------------------------------
          | TOTAL ENERGY               -8.167706901930 Eh   |
          | TOTAL ENTHALPY             -8.161402019703 Eh   |
          | TOTAL FREE ENERGY          -8.183840909364 Eh   |
          | GRADIENT NORM               0.000145957435 Eh/α |
          | HOMO-LUMO GAP               9.863111685146 eV   |
           -------------------------------------------------

 * finished run on 2025/10/18 at 05:08:38.774
normal termination of xtb
