   * xtb version 6.7.1 (edcfbbe) compiled by 'albert@albert-system' on 2024-07-22

   ID    Z sym.   atoms
    1    8 O      1-3
    2    1 H      4, 5

          program call               : xtb tb_lite_results_shiftn0p15_gp24_b0_rot180_complex.xyz --ohess --chrg -1 --alpb water
      * Solvation model:               ALPB
        Solvent                        water
        Solvent mass                       1.8000E+01 g/mol
          :  Hamiltonian                  GFN2-xTB          :
 * total energy  :   -13.3823526 Eh     change       -0.9155876E-10 Eh
 * total energy  :   -13.3840501 Eh     change       -0.1697516E-02 Eh
 * total energy  :   -13.3842810 Eh     change       -0.2308880E-03 Eh
 * total energy  :   -13.3843391 Eh     change       -0.5809748E-04 Eh
 * total energy  :   -13.3843902 Eh     change       -0.5108807E-04 Eh
 * total energy  :   -13.3843965 Eh     change       -0.6263471E-05 Eh
 * total energy  :   -13.3843982 Eh     change       -0.1725671E-05 Eh
   *** GEOMETRY OPTIMIZATION CONVERGED AFTER 7 ITERATIONS ***

 final structure:
================
5
 xtb: 6.7.1 (edcfbbe)
O           -3.04493926959824       -4.61711215846694        2.75300788954610
O           -4.14426531179178       -5.35407609259142        2.60853316982137
O           -3.48781082835892       -1.90753588440554        2.26688630138853
H           -3.28850289680169       -2.84773908168856        2.44359848433503
H           -4.42705147673269       -1.87769861132588        2.05486365993010

          :  Hamiltonian                  GFN2-xTB          :
         :: gradient norm              0.000527086904 Eh/a0 ::
         :: HOMO-LUMO gap             10.028974562395 eV    ::
         :: SCC energy               -13.417839848267 Eh    ::
         :: -> dispersion             -0.001135936934 Eh    ::
         :: -> Gsolv                  -0.124642821179 Eh    ::
         :: repulsion energy           0.033441640427 Eh    ::

    * Orbital Energies and Occupations

         #    Occupation            Energy/Eh            Energy/eV
      -------------------------------------------------------------
         1        2.0000           -0.6693853             -18.2149
         2        2.0000           -0.6603437             -17.9689
         3        2.0000           -0.6318216             -17.1927
         4        2.0000           -0.5429507             -14.7744
         5        2.0000           -0.5194384             -14.1346
         6        2.0000           -0.5048495             -13.7377
         7        2.0000           -0.4974589             -13.5365
         8        2.0000           -0.4832767             -13.1506
         9        2.0000           -0.4259695             -11.5912
        10        1.8249           -0.3552239              -9.6661
        11        1.1751           -0.3522783              -9.5860 (HOMO)
        12                          0.0162797               0.4430 (LUMO)
        13                          0.1285529               3.4981
        14                          0.2916579               7.9364
      -------------------------------------------------------------
                  HL-Gap            0.3685581 Eh           10.0290 eV

     #   Z          covCN         q      C6AA      α(0)
     1   8 O        0.967    -0.483    23.344     6.481
     2   8 O        0.967    -0.486    23.422     6.491
     3   8 O        1.608    -0.687    27.360     7.060
     4   1 H        0.803     0.305     0.707     1.321
     5   1 H        0.805     0.351     0.586     1.202

Wiberg/Mayer (AO) data.
largest (>0.10) Wiberg bond orders for each atom

     #   Z sym  total        # sym  WBO       # sym  WBO       # sym  WBO
 ---------------------------------------------------------------------------
     1   8 O    1.417 --     2 O    1.354
     2   8 O    1.357 --     1 O    1.354
     3   8 O    1.759 --     5 H    0.877     4 H    0.862
     4   1 H    0.907 --     3 O    0.862
     5   1 H    0.877 --     3 O    0.877
 ---------------------------------------------------------------------------

molecular dipole:
                 x           y           z       tot (Debye)
 q only:        6.282       8.721      -5.080
   full:        6.162       8.520      -5.078      29.679

 projected vibrational frequencies (cm⁻¹)
eigval :       -0.00    -0.00    -0.00     0.00     0.00     0.00
eigval :       59.94    79.46   205.71   388.35   613.87  1341.60
eigval :     1506.00  3254.62  3594.28

   temp. (K)  partition function   enthalpy   heat capacity  entropy
                                   cal/mol     cal/K/mol   cal/K/mol   J/K/mol
 298.15  VIB   24.8                 1649.352      8.014     11.443
         ROT  0.292E+05              888.752      2.981     23.415
         INT  0.724E+06             2538.104     10.995     34.857
         TR   0.342E+27             1481.254      4.968     37.636
         TOT                        4019.3584    15.9633    72.4931   303.3111

       T/K    H(0)-H(T)+PV         H(T)/Eh          T*S/Eh         G(T)/Eh
   ------------------------------------------------------------------------
    298.15    0.640526E-02    0.315649E-01    0.344438E-01   -0.287888E-02
   ------------------------------------------------------------------------

         :::::::::::::::::::::::::::::::::::::::::::::::::::::
         ::                  THERMODYNAMIC                  ::
         :::::::::::::::::::::::::::::::::::::::::::::::::::::
         :: total free energy         -13.387277086790 Eh   ::
         ::.................................................::
         :: total energy              -13.384398210905 Eh   ::
         :: zero point energy           0.025159674925 Eh   ::
         :: G(RRHO) w/o ZPVE           -0.028038550810 Eh   ::
         :: G(RRHO) contrib.           -0.002878875885 Eh   ::
         :::::::::::::::::::::::::::::::::::::::::::::::::::::

           -------------------------------------------------
          | TOTAL ENERGY              -13.384398210905 Eh   |
          | TOTAL ENTHALPY            -13.352833280701 Eh   |
          | TOTAL FREE ENERGY         -13.387277086790 Eh   |
          | GRADIENT NORM               0.000526908921 Eh/α |
          | HOMO-LUMO GAP              10.028975422023 eV   |
           -------------------------------------------------

 * finished run on 2025/10/18 at 05:08:36.868
normal termination of xtb
