                         Program Version 5.0.4 -  RELEASE  -
|  1> !OPT PBE def2-TZVP CPCM(water)
|  2>
|  3> *xyz -1 1
|  4> C     -5.303403   -3.623241    0.471886
|  5> C     -6.503242   -4.142496    1.257592
|  6> H     -2.081071   -1.603368    2.232836
|  7> H     -1.604559   -0.771398    0.742877
|  8> H     -3.056931   -0.254689    1.617461
|  9> C     -7.346283   -5.201242    0.539354
| 10> H     -6.159442   -4.580847    2.202722
| 11> H     -7.165588   -3.304795    1.508749
| 12> O     -6.980973   -5.522605   -0.624163
| 13> O     -8.323858   -5.629519    1.218657
| 14> C     -4.495651   -2.613118    1.288521
| 15> C     -3.289235   -2.100517    0.502252
| 16> H     -5.136891   -1.768767    1.569488
| 17> H     -4.154323   -3.083246    2.218856
| 18> C     -2.461663   -1.125347    1.324406
| 19> H     -2.655423   -2.942502    0.200471
| 20> H     -3.626555   -1.603272   -0.414645
| 21> H     -4.657173   -4.462296    0.186036
| 22> H     -5.646787   -3.154178   -0.458472
| 23> *
| 24>
| 25>                          ****END OF INPUT****
 Total Charge           Charge          ....   -1
 Multiplicity           Mult            ....    1
 Number of Electrons    NEL             ....   64
FINAL SINGLE POINT ENERGY      -385.547126259664
FINAL SINGLE POINT ENERGY      -385.549518882140
FINAL SINGLE POINT ENERGY      -385.549513513086
FINAL SINGLE POINT ENERGY      -385.549463266687
FINAL SINGLE POINT ENERGY      -385.549759823812
FINAL SINGLE POINT ENERGY      -385.549768864209
FINAL SINGLE POINT ENERGY      -385.549774929359
FINAL SINGLE POINT ENERGY      -385.549777873350
                    ***********************HURRAY********************

CARTESIAN COORDINATES (ANGSTROEM)
---------------------------------
  C     -5.293691   -3.647018    0.484138
  C     -6.501170   -4.176720    1.253538
  H     -2.077826   -1.498287    2.261080
  H     -1.574204   -0.709010    0.749965
  H     -3.064046   -0.192890    1.570464
  C     -7.413461   -5.192939    0.522804
  H     -6.171211   -4.652233    2.193831
  H     -7.144832   -3.336096    1.569181
  O     -7.150072   -5.487230   -0.681743
  O     -8.379007   -5.655381    1.206902
  C     -4.468474   -2.631723    1.279459
  C     -3.251268   -2.096921    0.520693
  H     -5.114689   -1.783220    1.570379
  H     -4.131257   -3.092599    2.225937
  C     -2.446295   -1.068590    1.316241
  H     -2.598730   -2.942921    0.242623
  H     -3.587671   -1.647371   -0.429896
  H     -4.648594   -4.491842    0.187454
  H     -5.632554   -3.184453   -0.458165

 Multiplicity           Mult            ....    1
 Number of Electrons    NEL             ....   64
 Basis Dimension        Dim             ....  314

ORBITAL ENERGIES
----------------

  NO   OCC          E(Eh)            E(eV)
   0   2.0000     -18.673008      -508.1184
   1   2.0000     -18.669667      -508.0275
   2   2.0000      -9.938787      -270.4481
   3   2.0000      -9.869030      -268.5500
   4   2.0000      -9.865686      -268.4590
   5   2.0000      -9.862986      -268.3855
   6   2.0000      -9.862340      -268.3679
   7   2.0000      -9.859569      -268.2925
   8   2.0000      -0.910107       -24.7653
   9   2.0000      -0.825839       -22.4722
  10   2.0000      -0.717468       -19.5233
  11   2.0000      -0.670987       -18.2585
  12   2.0000      -0.604171       -16.4403
  13   2.0000      -0.533271       -14.5111
  14   2.0000      -0.505214       -13.7476
  15   2.0000      -0.424208       -11.5433
  16   2.0000      -0.416515       -11.3340
  17   2.0000      -0.382118       -10.3980
  18   2.0000      -0.375656       -10.2221
  19   2.0000      -0.359292        -9.7768
  20   2.0000      -0.349439        -9.5087
  21   2.0000      -0.339331        -9.2337
  22   2.0000      -0.331611        -9.0236
  23   2.0000      -0.301982        -8.2173
  24   2.0000      -0.298077        -8.1111
  25   2.0000      -0.281354        -7.6560
  26   2.0000      -0.275693        -7.5020
  27   2.0000      -0.274203        -7.4614
  28   2.0000      -0.266657        -7.2561
  29   2.0000      -0.198407        -5.3989
  30   2.0000      -0.180117        -4.9012
  31   2.0000      -0.169451        -4.6110
  32   0.0000       0.023915         0.6508
  33   0.0000       0.028047         0.7632
  34   0.0000       0.040870         1.1121
  35   0.0000       0.056982         1.5506
  36   0.0000       0.061579         1.6756

MULLIKEN ATOMIC CHARGES
-----------------------
   0 C :   -0.162289
   1 C :   -0.252567
   2 H :    0.116582
   3 H :    0.127114
   4 H :    0.116938
   5 C :    0.160266
   6 H :    0.093046
   7 H :    0.094888
   8 O :   -0.528531
   9 O :   -0.545850
  10 C :   -0.198996
  11 C :   -0.156327
  12 H :    0.087634
  13 H :    0.087880
  14 C :   -0.374547
  15 H :    0.093068
  16 H :    0.092715
  17 H :    0.075610
  18 H :    0.073363
Sum of atomic charges:   -1.0000000

LOEWDIN ATOMIC CHARGES
----------------------
   0 C :   -0.285300
   1 C :   -0.279819
   2 H :    0.121280
   3 H :    0.121338
   4 H :    0.121318
   5 C :   -0.698223
   6 H :    0.141340
   7 H :    0.142635
   8 O :   -0.130162
   9 O :   -0.149071
  10 C :   -0.280594
  11 C :   -0.305013
  12 H :    0.136521
  13 H :    0.136329
  14 C :   -0.330279
  15 H :    0.135390
  16 H :    0.135459
  17 H :    0.133696
  18 H :    0.133157

  Mayer bond orders larger than 0.100000
B(  0-C ,  1-C ) :   0.9843 B(  0-C , 10-C ) :   1.0033 B(  0-C , 17-H ) :   0.9483
B(  0-C , 18-H ) :   0.9462 B(  1-C ,  5-C ) :   0.9294 B(  1-C ,  6-H ) :   0.9345
B(  1-C ,  7-H ) :   0.9319 B(  1-C ,  8-O ) :  -0.1156 B(  2-H , 14-C ) :   0.9669
B(  3-H , 14-C ) :   0.9667 B(  4-H , 14-C ) :   0.9670 B(  5-C ,  8-O ) :   1.8707
B(  5-C ,  9-O ) :   1.8665 B( 10-C , 11-C ) :   1.0206 B( 10-C , 12-H ) :   0.9472
B( 10-C , 13-H ) :   0.9469 B( 11-C , 14-C ) :   1.0033 B( 11-C , 15-H ) :   0.9508
B( 11-C , 16-H ) :   0.9509

FINAL SINGLE POINT ENERGY      -385.549779856872

DIPOLE MOMENT
-------------
                                X             Y             Z
Electronic contribution:    -10.71734      -9.09802      -2.25787
Nuclear contribution   :     15.03717      12.83283       3.35037
                        -----------------------------------------
Total Dipole Moment    :      4.31984       3.73482       1.09250
                        -----------------------------------------
Magnitude (a.u.)       :      5.81407
Magnitude (Debye)      :     14.77819

Rotational constants in cm-1:     0.246663     0.021767     0.020383
Rotational constants in MHz :  7394.761193   652.546603   611.071202

                             ****ORCA TERMINATED NORMALLY****
TOTAL RUN TIME: 0 days 0 hours 9 minutes 9 seconds 265 msec
