                         Program Version 5.0.4 -  RELEASE  -
|  1> !OPT PBE D3BJ def2-TZVP CPCM(water)
|  2>
|  3> *xyz -1 1
|  4> C     -7.046002   -4.552722    1.558691
|  5> C     -8.043668   -3.409858    1.584479
|  6> O     -7.652471   -5.727997    1.029235
|  7> H     -6.148685   -4.287035    0.987437
|  8> H     -6.727697   -4.782628    2.580652
|  9> O     -7.587248   -5.599823   -0.369982
| 10> H     -8.367829   -3.150914    0.571268
| 11> H     -8.941026   -3.694411    2.143732
| 12> H     -7.604592   -2.521881    2.048008
| 13> *
| 14>
| 15>                          ****END OF INPUT****
 Total Charge           Charge          ....   -1
 Multiplicity           Mult            ....    1
 Number of Electrons    NEL             ....   34
Dispersion correction           -0.004757068
FINAL SINGLE POINT ENERGY      -229.510471377604
Dispersion correction            ... done
Dispersion correction           -0.004717290
FINAL SINGLE POINT ENERGY      -229.515305597192
Dispersion correction            ... done
Dispersion correction           -0.004722274
FINAL SINGLE POINT ENERGY      -229.516178778291
Dispersion correction            ... done
FINAL SINGLE POINT ENERGY      -229.516289655440
Dispersion correction            ... done
Dispersion correction           -0.004724353
FINAL SINGLE POINT ENERGY      -229.516306144625
Dispersion correction            ... done
Dispersion correction           -0.004724281
FINAL SINGLE POINT ENERGY      -229.516311384253
Dispersion correction            ... done
                    ***********************HURRAY********************

CARTESIAN COORDINATES (ANGSTROEM)
---------------------------------
  C     -7.044827   -4.557760    1.575720
  C     -8.048166   -3.406298    1.578073
  O     -7.537536   -5.764313    1.037441
  H     -6.126851   -4.253234    1.028083
  H     -6.754879   -4.805256    2.615832
  O     -7.704286   -5.590809   -0.434834
  H     -8.350020   -3.168812    0.549043
  H     -8.947244   -3.675585    2.153996
  H     -7.605409   -2.505202    2.030167

 Multiplicity           Mult            ....    1
 Number of Electrons    NEL             ....   34
 Basis Dimension        Dim             ....  154

ORBITAL ENERGIES
----------------

  NO   OCC          E(Eh)            E(eV)
   0   2.0000     -18.736534      -509.8470
   1   2.0000     -18.651137      -507.5232
   2   2.0000      -9.898753      -269.3588
   3   2.0000      -9.854148      -268.1450
   4   2.0000      -0.913452       -24.8563
   5   2.0000      -0.698080       -18.9957
   6   2.0000      -0.632026       -17.1983
   7   2.0000      -0.509736       -13.8706
   8   2.0000      -0.393887       -10.7182
   9   2.0000      -0.378204       -10.2915
  10   2.0000      -0.346988        -9.4420
  11   2.0000      -0.314741        -8.5645
  12   2.0000      -0.308164        -8.3856
  13   2.0000      -0.254798        -6.9334
  14   2.0000      -0.225894        -6.1469
  15   2.0000      -0.132396        -3.6027
  16   2.0000      -0.105324        -2.8660
  17   0.0000       0.040128         1.0920
  18   0.0000       0.044516         1.2113
  19   0.0000       0.075138         2.0446
  20   0.0000       0.089838         2.4446
  21   0.0000       0.107336         2.9208

MULLIKEN ATOMIC CHARGES
-----------------------
   0 C :   -0.022095
   1 C :   -0.337142
   2 O :   -0.266579
   3 H :    0.026931
   4 H :    0.080396
   5 O :   -0.771294
   6 H :    0.085198
   7 H :    0.096713
   8 H :    0.107872
Sum of atomic charges:   -1.0000000

LOEWDIN ATOMIC CHARGES
----------------------
   0 C :   -0.455921
   1 C :   -0.358058
   2 O :   -0.050745
   3 H :    0.092195
   4 H :    0.118275
   5 O :   -0.689956
   6 H :    0.109243
   7 H :    0.113935
   8 H :    0.121032

  Mayer bond orders larger than 0.100000
B(  0-C ,  1-C ) :   0.9866 B(  0-C ,  2-O ) :   1.1164 B(  0-C ,  3-H ) :   0.9530
B(  0-C ,  4-H ) :   0.9314 B(  1-C ,  6-H ) :   0.9592 B(  1-C ,  7-H ) :   0.9591
B(  1-C ,  8-H ) :   0.9525 B(  2-O ,  5-O ) :   0.8365

Dispersion correction           -0.004723989
FINAL SINGLE POINT ENERGY      -229.516312321368

DIPOLE MOMENT
-------------
                                X             Y             Z
Electronic contribution:      0.15457      -3.71130      -1.42208
Nuclear contribution   :      0.13721       5.43626       3.54152
                        -----------------------------------------
Total Dipole Moment    :      0.29179       1.72497       2.11944
                        -----------------------------------------
Magnitude (a.u.)       :      2.74821
Magnitude (Debye)      :      6.98541

Rotational constants in cm-1:     0.539237     0.183856     0.155216
Rotational constants in MHz : 16165.904804  5511.849725  4653.272608

                             ****ORCA TERMINATED NORMALLY****
TOTAL RUN TIME: 0 days 0 hours 2 minutes 48 seconds 91 msec
