   * xtb version 6.7.1 (edcfbbe) compiled by 'albert@albert-system' on 2024-07-22

   ID    Z sym.   atoms
    1   16 S      1
    2    1 H      2, 4, 5
    3    8 O      3

          program call               : xtb tb_lite_results_shiftn0p1_gp60_b0_rot270_complex.xyz --ohess --chrg -1 --alpb water
      * Solvation model:               ALPB
        Solvent                        water
        Solvent mass                       1.8000E+01 g/mol
          :  Hamiltonian                  GFN2-xTB          :
 * total energy  :    -9.1411934 Eh     change       -0.5087486E-11 Eh
 * total energy  :    -9.1421072 Eh     change       -0.9138229E-03 Eh
 * total energy  :    -9.1421527 Eh     change       -0.4551253E-04 Eh
 * total energy  :    -9.1421885 Eh     change       -0.3577780E-04 Eh
 * total energy  :    -9.1421948 Eh     change       -0.6265070E-05 Eh
 * total energy  :    -9.1422063 Eh     change       -0.1146790E-04 Eh
 * total energy  :    -9.1422082 Eh     change       -0.1973808E-05 Eh
   *** GEOMETRY OPTIMIZATION CONVERGED AFTER 7 ITERATIONS ***

 final structure:
================
5
 xtb: 6.7.1 (edcfbbe)
S           -4.95596621863369       -3.60818511112766        0.89041835635126
H           -6.08311590845311       -4.24584967648377        1.22627850730792
O           -4.22196920998857       -5.75244664767825       -1.28002213485248
H           -4.47319815285038       -5.11749999944838       -0.57442146318323
H           -3.57798630414830       -5.28374426008322       -1.82315197869738

          :  Hamiltonian                  GFN2-xTB          :
         :: gradient norm              0.000530126188 Eh/a0 ::
         :: HOMO-LUMO gap              5.175374301535 eV    ::
         :: SCC energy                -9.181579883090 Eh    ::
         :: -> dispersion             -0.001290378748 Eh    ::
         :: -> Gsolv                  -0.104845154955 Eh    ::
         :: repulsion energy           0.039371655873 Eh    ::

    * Orbital Energies and Occupations

         #    Occupation            Energy/Eh            Energy/eV
      -------------------------------------------------------------
         1        2.0000           -0.6587681             -17.9260
         2        2.0000           -0.6375654             -17.3490
         3        2.0000           -0.5360241             -14.5860
         4        2.0000           -0.4894178             -13.3177
         5        2.0000           -0.4312371             -11.7346
         6        2.0000           -0.4237926             -11.5320
         7        2.0000           -0.3071051              -8.3568
         8        2.0000           -0.3026183              -8.2347 (HOMO)
         9                         -0.1124268              -3.0593 (LUMO)
        10                          0.0186736               0.5081
        11                          0.0278447               0.7577
        12                          0.0312875               0.8514
        13                          0.0465198               1.2659
        14                          0.1511753               4.1137
        15                          0.3023785               8.2281
        16                          0.5099750              13.8771
      -------------------------------------------------------------
                  HL-Gap            0.1901915 Eh            5.1754 eV

     #   Z          covCN         q      C6AA      α(0)
     1  16 S        0.935    -1.003   188.547    23.225
     2   1 H        0.922     0.048     2.351     2.398
     3   8 O        1.608    -0.680    27.177     7.036
     4   1 H        0.815     0.284     0.770     1.378
     5   1 H        0.805     0.352     0.584     1.201

Wiberg/Mayer (AO) data.
largest (>0.10) Wiberg bond orders for each atom

     #   Z sym  total        # sym  WBO       # sym  WBO       # sym  WBO
 ---------------------------------------------------------------------------
     1  16 S    1.081 --     2 H    0.998
     2   1 H    0.998 --     1 S    0.998
     3   8 O    1.770 --     5 H    0.876     4 H    0.865
     4   1 H    0.920 --     3 O    0.865
     5   1 H    0.876 --     3 O    0.876
 ---------------------------------------------------------------------------

molecular dipole:
                 x           y           z       tot (Debye)
 q only:        9.496       7.593      -1.453
   full:        9.331       7.715      -1.283      30.946

 projected vibrational frequencies (cm⁻¹)
eigval :       -0.00    -0.00    -0.00     0.00     0.00     0.00
eigval :      126.10   163.71   228.63   420.92   571.88  1510.66
eigval :     2378.68  3099.68  3588.58

   temp. (K)  partition function   enthalpy   heat capacity  entropy
                                   cal/mol     cal/K/mol   cal/K/mol   J/K/mol
 298.15  VIB   7.39                 1439.170      8.171      8.792
         ROT  0.140E+05              888.752      2.981     21.952
         INT  0.103E+06             2327.922     11.152     30.744
         TR   0.353E+27             1481.254      4.968     37.699
         TOT                        3809.1762    16.1203    68.4434   286.3673

       T/K    H(0)-H(T)+PV         H(T)/Eh          T*S/Eh         G(T)/Eh
   ------------------------------------------------------------------------
    298.15    0.607031E-02    0.336107E-01    0.325197E-01    0.109102E-02
   ------------------------------------------------------------------------

         :::::::::::::::::::::::::::::::::::::::::::::::::::::
         ::                  THERMODYNAMIC                  ::
         :::::::::::::::::::::::::::::::::::::::::::::::::::::
         :: total free energy          -9.141117204314 Eh   ::
         ::.................................................::
         :: total energy               -9.142208224304 Eh   ::
         :: zero point energy           0.027540388938 Eh   ::
         :: G(RRHO) w/o ZPVE           -0.026449368949 Eh   ::
         :: G(RRHO) contrib.            0.001091019989 Eh   ::
         :::::::::::::::::::::::::::::::::::::::::::::::::::::

           -------------------------------------------------
          | TOTAL ENERGY               -9.142208224304 Eh   |
          | TOTAL ENTHALPY             -9.108597526683 Eh   |
          | TOTAL FREE ENERGY          -9.141117204314 Eh   |
          | GRADIENT NORM               0.000530102828 Eh/α |
          | HOMO-LUMO GAP               5.175374521012 eV   |
           -------------------------------------------------

 * finished run on 2025/10/18 at 07:10:47.742
normal termination of xtb
