   * xtb version 6.7.1 (edcfbbe) compiled by 'albert@albert-system' on 2024-07-22

   ID    Z sym.   atoms
    1   16 S      1
    2    1 H      2, 4, 5
    3    8 O      3

          program call               : xtb tb_lite_results_shiftn0p1_gp64_b0_rot90_complex.xyz --ohess --chrg -1 --alpb water
      * Solvation model:               ALPB
        Solvent                        water
        Solvent mass                       1.8000E+01 g/mol
          :  Hamiltonian                  GFN2-xTB          :
 * total energy  :    -9.1411901 Eh     change       -0.3298695E-11 Eh
 * total energy  :    -9.1421022 Eh     change       -0.9120644E-03 Eh
 * total energy  :    -9.1421544 Eh     change       -0.5216729E-04 Eh
 * total energy  :    -9.1421919 Eh     change       -0.3749982E-04 Eh
 * total energy  :    -9.1421979 Eh     change       -0.6004520E-05 Eh
 * total energy  :    -9.1422085 Eh     change       -0.1067538E-04 Eh
 * total energy  :    -9.1422107 Eh     change       -0.2140775E-05 Eh
   *** GEOMETRY OPTIMIZATION CONVERGED AFTER 7 ITERATIONS ***

 final structure:
================
5
 xtb: 6.7.1 (edcfbbe)
S           -4.96358741443988       -3.62163259215636        0.83069371740287
H           -6.10928267395033       -4.28092480064932        1.03777182429033
O           -3.67077541901618       -4.84016312120377        3.41143671668320
H           -4.11565691925739       -4.49138174749696        2.60834413962517
H           -2.82647339027149       -4.37735136756470        3.45129411281228

          :  Hamiltonian                  GFN2-xTB          :
         :: gradient norm              0.000186695973 Eh/a0 ::
         :: HOMO-LUMO gap              5.173611165246 eV    ::
         :: SCC energy                -9.181613073880 Eh    ::
         :: -> dispersion             -0.001292985473 Eh    ::
         :: -> Gsolv                  -0.104715822895 Eh    ::
         :: repulsion energy           0.039402385232 Eh    ::

    * Orbital Energies and Occupations

         #    Occupation            Energy/Eh            Energy/eV
      -------------------------------------------------------------
         1        2.0000           -0.6587335             -17.9251
         2        2.0000           -0.6376570             -17.3515
         3        2.0000           -0.5359495             -14.5839
         4        2.0000           -0.4894681             -13.3191
         5        2.0000           -0.4313505             -11.7376
         6        2.0000           -0.4237568             -11.5310
         7        2.0000           -0.3072551              -8.3608
         8        2.0000           -0.3027126              -8.2372 (HOMO)
         9                         -0.1125859              -3.0636 (LUMO)
        10                          0.0186798               0.5083
        11                          0.0275627               0.7500
        12                          0.0312509               0.8504
        13                          0.0464340               1.2635
        14                          0.1520590               4.1377
        15                          0.3027814               8.2391
        16                          0.5102728              13.8852
      -------------------------------------------------------------
                  HL-Gap            0.1901267 Eh            5.1736 eV

     #   Z          covCN         q      C6AA      α(0)
     1  16 S        0.936    -1.002   188.493    23.222
     2   1 H        0.922     0.047     2.355     2.400
     3   8 O        1.608    -0.680    27.178     7.036
     4   1 H        0.816     0.284     0.771     1.378
     5   1 H        0.805     0.351     0.585     1.202

Wiberg/Mayer (AO) data.
largest (>0.10) Wiberg bond orders for each atom

     #   Z sym  total        # sym  WBO       # sym  WBO       # sym  WBO
 ---------------------------------------------------------------------------
     1  16 S    1.083 --     2 H    0.998
     2   1 H    0.998 --     1 S    0.998
     3   8 O    1.770 --     5 H    0.876     4 H    0.864
     4   1 H    0.920 --     3 O    0.864
     5   1 H    0.877 --     3 O    0.876
 ---------------------------------------------------------------------------

molecular dipole:
                 x           y           z       tot (Debye)
 q only:        9.489       7.383      -2.175
   full:        9.296       7.427      -2.346      30.826

 projected vibrational frequencies (cm⁻¹)
eigval :       -0.00    -0.00    -0.00    -0.00     0.00     0.00
eigval :       97.35   158.75   225.50   403.01   579.93  1507.93
eigval :     2377.26  3094.65  3588.80

   temp. (K)  partition function   enthalpy   heat capacity  entropy
                                   cal/mol     cal/K/mol   cal/K/mol   J/K/mol
 298.15  VIB   9.35                 1488.780      8.187      9.393
         ROT  0.140E+05              888.752      2.981     21.947
         INT  0.130E+06             2377.532     11.168     31.340
         TR   0.353E+27             1481.254      4.968     37.699
         TOT                        3858.7862    16.1363    69.0386   288.8575

       T/K    H(0)-H(T)+PV         H(T)/Eh          T*S/Eh         G(T)/Eh
   ------------------------------------------------------------------------
    298.15    0.614937E-02    0.335630E-01    0.328025E-01    0.760522E-03
   ------------------------------------------------------------------------

         :::::::::::::::::::::::::::::::::::::::::::::::::::::
         ::                  THERMODYNAMIC                  ::
         :::::::::::::::::::::::::::::::::::::::::::::::::::::
         :: total free energy          -9.141450165879 Eh   ::
         ::.................................................::
         :: total energy               -9.142210687966 Eh   ::
         :: zero point energy           0.027413620984 Eh   ::
         :: G(RRHO) w/o ZPVE           -0.026653098897 Eh   ::
         :: G(RRHO) contrib.            0.000760522087 Eh   ::
         :::::::::::::::::::::::::::::::::::::::::::::::::::::

           -------------------------------------------------
          | TOTAL ENERGY               -9.142210687966 Eh   |
          | TOTAL ENTHALPY             -9.108647699705 Eh   |
          | TOTAL FREE ENERGY          -9.141450165879 Eh   |
          | GRADIENT NORM               0.000186732460 Eh/α |
          | HOMO-LUMO GAP               5.173611419353 eV   |
           -------------------------------------------------

 * finished run on 2025/10/18 at 07:10:43.818
normal termination of xtb
