   * xtb version 6.7.1 (edcfbbe) compiled by 'albert@albert-system' on 2024-07-22

   ID    Z sym.   atoms
    1   16 S      1
    2    1 H      2, 4, 5
    3    8 O      3

          program call               : xtb tb_lite_results_shiftn0p1_gp71_b0_rot0_complex.xyz --ohess --chrg -1 --alpb water
      * Solvation model:               ALPB
        Solvent                        water
        Solvent mass                       1.8000E+01 g/mol
          :  Hamiltonian                  GFN2-xTB          :
 * total energy  :    -9.1412363 Eh     change       -0.8688161E-11 Eh
 * total energy  :    -9.1421644 Eh     change       -0.9280793E-03 Eh
 * total energy  :    -9.1421878 Eh     change       -0.2345917E-04 Eh
 * total energy  :    -9.1422060 Eh     change       -0.1818084E-04 Eh
 * total energy  :    -9.1422113 Eh     change       -0.5277959E-05 Eh
 * total energy  :    -9.1422170 Eh     change       -0.5665147E-05 Eh
 * total energy  :    -9.1422181 Eh     change       -0.1099627E-05 Eh
   *** GEOMETRY OPTIMIZATION CONVERGED AFTER 7 ITERATIONS ***

 final structure:
================
5
 xtb: 6.7.1 (edcfbbe)
S           -4.91354670510683       -3.67167202038554        0.84159311677451
H           -6.01896334257568       -4.37512798429373        1.11360473296225
O           -6.12307866764307       -1.06599677479382        2.08521654228569
H           -5.78469298661099       -1.91011926681728        1.71401658191335
H           -5.44226633523476       -0.41394556967876        1.88385734337881

          :  Hamiltonian                  GFN2-xTB          :
         :: gradient norm              0.000637088762 Eh/a0 ::
         :: HOMO-LUMO gap              5.172174308381 eV    ::
         :: SCC energy                -9.181537474128 Eh    ::
         :: -> dispersion             -0.001293642115 Eh    ::
         :: -> Gsolv                  -0.104696140407 Eh    ::
         :: repulsion energy           0.039319407909 Eh    ::

    * Orbital Energies and Occupations

         #    Occupation            Energy/Eh            Energy/eV
      -------------------------------------------------------------
         1        2.0000           -0.6586858             -17.9238
         2        2.0000           -0.6376966             -17.3526
         3        2.0000           -0.5358439             -14.5811
         4        2.0000           -0.4895069             -13.3202
         5        2.0000           -0.4313858             -11.7386
         6        2.0000           -0.4237119             -11.5298
         7        2.0000           -0.3073275              -8.3628
         8        2.0000           -0.3027674              -8.2387 (HOMO)
         9                         -0.1126935              -3.0665 (LUMO)
        10                          0.0185374               0.5044
        11                          0.0275460               0.7496
        12                          0.0312241               0.8496
        13                          0.0463923               1.2624
        14                          0.1519771               4.1355
        15                          0.3025693               8.2333
        16                          0.5100279              13.8786
      -------------------------------------------------------------
                  HL-Gap            0.1900739 Eh            5.1722 eV

     #   Z          covCN         q      C6AA      α(0)
     1  16 S        0.937    -1.002   188.465    23.220
     2   1 H        0.922     0.047     2.355     2.400
     3   8 O        1.607    -0.680    27.178     7.036
     4   1 H        0.817     0.283     0.772     1.379
     5   1 H        0.805     0.351     0.586     1.202

Wiberg/Mayer (AO) data.
largest (>0.10) Wiberg bond orders for each atom

     #   Z sym  total        # sym  WBO       # sym  WBO       # sym  WBO
 ---------------------------------------------------------------------------
     1  16 S    1.084 --     2 H    0.998
     2   1 H    0.998 --     1 S    0.998
     3   8 O    1.770 --     5 H    0.876     4 H    0.864
     4   1 H    0.920 --     3 O    0.864
     5   1 H    0.877 --     3 O    0.876
 ---------------------------------------------------------------------------

molecular dipole:
                 x           y           z       tot (Debye)
 q only:        9.923       6.632      -2.005
   full:        9.920       6.382      -2.084      30.447

 projected vibrational frequencies (cm⁻¹)
eigval :       -0.00    -0.00    -0.00    -0.00     0.00     0.00
eigval :      121.93   158.41   219.74   396.56   558.82  1508.11
eigval :     2375.27  3089.46  3584.96

   temp. (K)  partition function   enthalpy   heat capacity  entropy
                                   cal/mol     cal/K/mol   cal/K/mol   J/K/mol
 298.15  VIB   8.10                 1477.474      8.272      9.100
         ROT  0.139E+05              888.752      2.981     21.944
         INT  0.113E+06             2366.227     11.253     31.044
         TR   0.353E+27             1481.254      4.968     37.699
         TOT                        3847.4805    16.2211    68.7430   287.6208

       T/K    H(0)-H(T)+PV         H(T)/Eh          T*S/Eh         G(T)/Eh
   ------------------------------------------------------------------------
    298.15    0.613135E-02    0.334996E-01    0.326620E-01    0.837571E-03
   ------------------------------------------------------------------------

         :::::::::::::::::::::::::::::::::::::::::::::::::::::
         ::                  THERMODYNAMIC                  ::
         :::::::::::::::::::::::::::::::::::::::::::::::::::::
         :: total free energy          -9.141380493948 Eh   ::
         ::.................................................::
         :: total energy               -9.142218064969 Eh   ::
         :: zero point energy           0.027368245830 Eh   ::
         :: G(RRHO) w/o ZPVE           -0.026530674809 Eh   ::
         :: G(RRHO) contrib.            0.000837571021 Eh   ::
         :::::::::::::::::::::::::::::::::::::::::::::::::::::

           -------------------------------------------------
          | TOTAL ENERGY               -9.142218064969 Eh   |
          | TOTAL ENTHALPY             -9.108718468648 Eh   |
          | TOTAL FREE ENERGY          -9.141380493948 Eh   |
          | GRADIENT NORM               0.000637088290 Eh/α |
          | HOMO-LUMO GAP               5.172174587105 eV   |
           -------------------------------------------------

 * finished run on 2025/10/18 at 07:10:48.314
normal termination of xtb
