   * xtb version 6.7.1 (edcfbbe) compiled by 'albert@albert-system' on 2024-07-22

   ID    Z sym.   atoms
    1   16 S      1
    2    1 H      2

          program call               : xtb tb_lite_results_shiftn0p1_gp60_b0_rot270_solute.xyz --ohess --chrg -1
          :  Hamiltonian                  GFN2-xTB          :
 * total energy  :    -3.9500250 Eh     change       -0.4884981E-14 Eh
 * total energy  :    -3.9500354 Eh     change       -0.1045179E-04 Eh
 * total energy  :    -3.9500380 Eh     change       -0.2518810E-05 Eh
   *** GEOMETRY OPTIMIZATION CONVERGED AFTER 3 ITERATIONS ***

 final structure:
================
2
 xtb: 6.7.1 (edcfbbe)
S           -4.92638745585499       -3.62398842461302        0.85491797763641
H           -6.03763259851594       -4.31441361470509        1.13570403213540

          :  Hamiltonian                  GFN2-xTB          :
         :: gradient norm              0.000764673421 Eh/a0 ::
         :: HOMO-LUMO gap              5.162798789477 eV    ::
         :: SCC energy                -3.959018748393 Eh    ::
         :: -> dispersion             -0.000243637909 Eh    ::
         :: repulsion energy           0.008980785622 Eh    ::

    * Orbital Energies and Occupations

         #    Occupation            Energy/Eh            Energy/eV
      -------------------------------------------------------------
         1        2.0000           -0.4154282             -11.3044
         2        2.0000           -0.2107714              -5.7354
         3        2.0000           -0.0811381              -2.2079
         4        2.0000           -0.0811381              -2.2079 (HOMO)
         5                          0.1085913               2.9549 (LUMO)
         6                          0.2486971               6.7674
         7                          0.2486971               6.7674
         8                          0.2677769               7.2866
         9                          0.2677769               7.2866
        10                          0.6955581              18.9271
      -------------------------------------------------------------
                  HL-Gap            0.1897294 Eh            5.1628 eV

     #   Z          covCN         q      C6AA      α(0)
     1  16 S        0.922    -1.045   191.068    23.380
     2   1 H        0.922     0.045     2.379     2.412

Wiberg/Mayer (AO) data.
largest (>0.10) Wiberg bond orders for each atom

     #   Z sym  total        # sym  WBO       # sym  WBO       # sym  WBO
 ---------------------------------------------------------------------------
     1  16 S    0.998 --     2 H    0.998
     2   1 H    0.998 --     1 S    0.998
 ---------------------------------------------------------------------------

molecular dipole:
                 x           y           z       tot (Debye)
 q only:        9.214       6.789      -1.592
   full:        9.056       6.691      -1.551      28.889

   temp. (K)  partition function   enthalpy   heat capacity  entropy
                                   cal/mol     cal/K/mol   cal/K/mol   J/K/mol
 298.15  VIB   1.00                    0.077      0.003      0.000
         ROT   21.5                  592.502      1.987      8.085
         INT   21.5                  592.579      1.990      8.085
         TR   0.184E+27             1481.254      4.968     36.403
         TOT                        2073.8328     6.9584    44.4886   186.1403

       T/K    H(0)-H(T)+PV         H(T)/Eh          T*S/Eh         G(T)/Eh
   ------------------------------------------------------------------------
    298.15    0.330486E-02    0.867526E-02    0.211380E-01   -0.124627E-01
   ------------------------------------------------------------------------

         :::::::::::::::::::::::::::::::::::::::::::::::::::::
         ::                  THERMODYNAMIC                  ::
         :::::::::::::::::::::::::::::::::::::::::::::::::::::
         :: total free energy          -3.962500670003 Eh   ::
         ::.................................................::
         :: total energy               -3.950037962771 Eh   ::
         :: zero point energy           0.005370396830 Eh   ::
         :: G(RRHO) w/o ZPVE           -0.017833104063 Eh   ::
         :: G(RRHO) contrib.           -0.012462707233 Eh   ::
         :::::::::::::::::::::::::::::::::::::::::::::::::::::

           -------------------------------------------------
          | TOTAL ENERGY               -3.950037962771 Eh   |
          | TOTAL ENTHALPY             -3.941362703003 Eh   |
          | TOTAL FREE ENERGY          -3.962500670003 Eh   |
          | GRADIENT NORM               0.000764673220 Eh/α |
          | HOMO-LUMO GAP               5.162798783738 eV   |
           -------------------------------------------------

 * finished run on 2025/10/18 at 07:10:47.867
normal termination of xtb
