   * xtb version 6.7.1 (edcfbbe) compiled by 'albert@albert-system' on 2024-07-22

   ID    Z sym.   atoms
    1   16 S      1
    2    1 H      2, 4, 5
    3    8 O      3

          program call               : xtb tb_lite_results_shiftn0p1_gp88_b0_rot180_complex.xyz --ohess --chrg -1 --alpb water
      * Solvation model:               ALPB
        Solvent                        water
        Solvent mass                       1.8000E+01 g/mol
          :  Hamiltonian                  GFN2-xTB          :
 * total energy  :    -9.1412004 Eh     change       -0.2895462E-11 Eh
 * total energy  :    -9.1420799 Eh     change       -0.8794933E-03 Eh
 * total energy  :    -9.1421335 Eh     change       -0.5365514E-04 Eh
 * total energy  :    -9.1421714 Eh     change       -0.3782514E-04 Eh
 * total energy  :    -9.1421772 Eh     change       -0.5849965E-05 Eh
 * total energy  :    -9.1421875 Eh     change       -0.1025428E-04 Eh
 * total energy  :    -9.1421902 Eh     change       -0.2767110E-05 Eh
   *** GEOMETRY OPTIMIZATION CONVERGED AFTER 7 ITERATIONS ***

 final structure:
================
5
 xtb: 6.7.1 (edcfbbe)
S           -4.96856165605014       -3.60508169695183        0.86437608088220
H           -6.12424785915500       -4.21857932117991        1.14259281368799
O           -3.41853197287089       -6.32779637129226        0.85480446676755
H           -3.94183689979607       -5.49675868976547        0.84933931734877
H           -2.49761410850830       -6.04460196137544        0.84660034440159

          :  Hamiltonian                  GFN2-xTB          :
         :: gradient norm              0.000246801481 Eh/a0 ::
         :: HOMO-LUMO gap              5.176166834738 eV    ::
         :: SCC energy                -9.181636556296 Eh    ::
         :: -> dispersion             -0.001292786914 Eh    ::
         :: -> Gsolv                  -0.104755969494 Eh    ::
         :: repulsion energy           0.039446326841 Eh    ::

    * Orbital Energies and Occupations

         #    Occupation            Energy/Eh            Energy/eV
      -------------------------------------------------------------
         1        2.0000           -0.6588162             -17.9273
         2        2.0000           -0.6376339             -17.3509
         3        2.0000           -0.5360266             -14.5860
         4        2.0000           -0.4895009             -13.3200
         5        2.0000           -0.4312915             -11.7360
         6        2.0000           -0.4238058             -11.5323
         7        2.0000           -0.3072339              -8.3603
         8        2.0000           -0.3026891              -8.2366 (HOMO)
         9                         -0.1124685              -3.0604 (LUMO)
        10                          0.0186619               0.5078
        11                          0.0275913               0.7508
        12                          0.0312639               0.8507
        13                          0.0464368               1.2636
        14                          0.1520634               4.1379
        15                          0.3031253               8.2485
        16                          0.5108506              13.9010
      -------------------------------------------------------------
                  HL-Gap            0.1902206 Eh            5.1762 eV

     #   Z          covCN         q      C6AA      α(0)
     1  16 S        0.936    -1.002   188.505    23.222
     2   1 H        0.922     0.048     2.350     2.398
     3   8 O        1.608    -0.680    27.177     7.036
     4   1 H        0.816     0.283     0.771     1.378
     5   1 H        0.805     0.351     0.586     1.202

Wiberg/Mayer (AO) data.
largest (>0.10) Wiberg bond orders for each atom

     #   Z sym  total        # sym  WBO       # sym  WBO       # sym  WBO
 ---------------------------------------------------------------------------
     1  16 S    1.083 --     2 H    0.998
     2   1 H    0.998 --     1 S    0.998
     3   8 O    1.770 --     5 H    0.876     4 H    0.864
     4   1 H    0.920 --     3 O    0.864
     5   1 H    0.877 --     3 O    0.876
 ---------------------------------------------------------------------------

molecular dipole:
                 x           y           z       tot (Debye)
 q only:        9.484       7.623      -1.616
   full:        9.278       7.776      -1.574      31.028

 projected vibrational frequencies (cm⁻¹)
eigval :       -0.00    -0.00    -0.00     0.00     0.00     0.00
eigval :     -153.04   148.27   218.05   371.97   543.44  1499.43
eigval :     2378.93  3093.35  3584.60

   temp. (K)  partition function   enthalpy   heat capacity  entropy
                                   cal/mol     cal/K/mol   cal/K/mol   J/K/mol
 298.15  VIB   3.89                 1076.771      6.466      6.309
         ROT  0.139E+05              888.752      2.981     21.945
         INT  0.543E+05             1965.523      9.447     28.254
         TR   0.353E+27             1481.254      4.968     37.699
         TOT                        3446.7771    14.4149    65.9530   275.9474

       T/K    H(0)-H(T)+PV         H(T)/Eh          T*S/Eh         G(T)/Eh
   ------------------------------------------------------------------------
    298.15    0.549279E-02    0.324618E-01    0.313364E-01    0.112545E-02
   ------------------------------------------------------------------------

         :::::::::::::::::::::::::::::::::::::::::::::::::::::
         ::                  THERMODYNAMIC                  ::
         :::::::::::::::::::::::::::::::::::::::::::::::::::::
         :: total free energy          -9.141064780692 Eh   ::
         ::.................................................::
         :: total energy               -9.142190226029 Eh   ::
         :: zero point energy           0.026969056176 Eh   ::
         :: G(RRHO) w/o ZPVE           -0.025843610839 Eh   ::
         :: G(RRHO) contrib.            0.001125445337 Eh   ::
         :::::::::::::::::::::::::::::::::::::::::::::::::::::

           -------------------------------------------------
          | TOTAL ENERGY               -9.142190226029 Eh   |
          | TOTAL ENTHALPY             -9.109728380989 Eh   |
          | TOTAL FREE ENERGY          -9.141064780692 Eh   |
          | GRADIENT NORM               0.000246811252 Eh/α |
          | HOMO-LUMO GAP               5.176167104085 eV   |
           -------------------------------------------------

 * finished run on 2025/10/18 at 07:10:46.516
normal termination of xtb
