   * xtb version 6.7.1 (edcfbbe) compiled by 'albert@albert-system' on 2024-07-22

   ID    Z sym.   atoms
    1   16 S      1
    2    1 H      2, 4, 5
    3    8 O      3

          program call               : xtb tb_lite_results_shiftn0p1_gp105_b0_rot270_complex.xyz --ohess --chrg -1 --alpb water
      * Solvation model:               ALPB
        Solvent                        water
        Solvent mass                       1.8000E+01 g/mol
          :  Hamiltonian                  GFN2-xTB          :
 * total energy  :    -9.1411914 Eh     change       -0.2994938E-11 Eh
 * total energy  :    -9.1405897 Eh     change        0.6017455E-03 Eh
 * total energy  :    -9.1420111 Eh     change       -0.1421379E-02 Eh
 * total energy  :    -9.1421537 Eh     change       -0.1426326E-03 Eh
 * total energy  :    -9.1422258 Eh     change       -0.7213744E-04 Eh
 * total energy  :    -9.1422326 Eh     change       -0.6749915E-05 Eh
 * total energy  :    -9.1422352 Eh     change       -0.2585110E-05 Eh
   *** GEOMETRY OPTIMIZATION CONVERGED AFTER 7 ITERATIONS ***

 final structure:
================
5
 xtb: 6.7.1 (edcfbbe)
S           -4.95105147624731       -3.62587849946607        0.89322477081563
H           -6.06703776232803       -4.26122363412154        1.26791280143722
O           -4.90221381041215       -5.08173867921895       -1.88422657220016
H           -4.96679034064382       -4.63974947296892       -1.00943754449929
H           -4.05128499971617       -4.80569167719743       -2.24204443310522

          :  Hamiltonian                  GFN2-xTB          :
         :: gradient norm              0.000394783204 Eh/a0 ::
         :: HOMO-LUMO gap              5.175211555146 eV    ::
         :: SCC energy                -9.181664531633 Eh    ::
         :: -> dispersion             -0.001291479553 Eh    ::
         :: -> Gsolv                  -0.104781366739 Eh    ::
         :: repulsion energy           0.039429372212 Eh    ::

    * Orbital Energies and Occupations

         #    Occupation            Energy/Eh            Energy/eV
      -------------------------------------------------------------
         1        2.0000           -0.6587527             -17.9256
         2        2.0000           -0.6376154             -17.3504
         3        2.0000           -0.5359296             -14.5834
         4        2.0000           -0.4894934             -13.3198
         5        2.0000           -0.4313089             -11.7365
         6        2.0000           -0.4237801             -11.5316
         7        2.0000           -0.3071740              -8.3586
         8        2.0000           -0.3026548              -8.2357 (HOMO)
         9                         -0.1124693              -3.0604 (LUMO)
        10                          0.0186694               0.5080
        11                          0.0276849               0.7533
        12                          0.0312695               0.8509
        13                          0.0464852               1.2649
        14                          0.1520570               4.1377
        15                          0.3023992               8.2287
        16                          0.5104165              13.8891
      -------------------------------------------------------------
                  HL-Gap            0.1901855 Eh            5.1752 eV

     #   Z          covCN         q      C6AA      α(0)
     1  16 S        0.936    -1.003   188.520    23.223
     2   1 H        0.922     0.047     2.353     2.399
     3   8 O        1.608    -0.680    27.180     7.036
     4   1 H        0.816     0.284     0.770     1.377
     5   1 H        0.805     0.351     0.585     1.201

Wiberg/Mayer (AO) data.
largest (>0.10) Wiberg bond orders for each atom

     #   Z sym  total        # sym  WBO       # sym  WBO       # sym  WBO
 ---------------------------------------------------------------------------
     1  16 S    1.082 --     2 H    0.998
     2   1 H    0.998 --     1 S    0.998
     3   8 O    1.770 --     5 H    0.876     4 H    0.865
     4   1 H    0.919 --     3 O    0.865
     5   1 H    0.877 --     3 O    0.876
 ---------------------------------------------------------------------------

molecular dipole:
                 x           y           z       tot (Debye)
 q only:        9.782       7.338      -1.188
   full:        9.694       7.386      -0.945      31.070

 projected vibrational frequencies (cm⁻¹)
eigval :       -0.00    -0.00    -0.00     0.00     0.00     0.00
eigval :      -42.11   165.06   249.63   410.35   588.14  1508.48
eigval :     2379.63  3098.68  3590.78

   temp. (K)  partition function   enthalpy   heat capacity  entropy
                                   cal/mol     cal/K/mol   cal/K/mol   J/K/mol
 298.15  VIB   3.21                  988.634      6.221      5.631
         ROT  0.140E+05              888.752      2.981     21.950
         INT  0.448E+05             1877.387      9.201     27.581
         TR   0.353E+27             1481.254      4.968     37.699
         TOT                        3358.6407    14.1696    65.2803   273.1327

       T/K    H(0)-H(T)+PV         H(T)/Eh          T*S/Eh         G(T)/Eh
   ------------------------------------------------------------------------
    298.15    0.535233E-02    0.326693E-01    0.310168E-01    0.165250E-02
   ------------------------------------------------------------------------

         :::::::::::::::::::::::::::::::::::::::::::::::::::::
         ::                  THERMODYNAMIC                  ::
         :::::::::::::::::::::::::::::::::::::::::::::::::::::
         :: total free energy          -9.140582660550 Eh   ::
         ::.................................................::
         :: total energy               -9.142235158475 Eh   ::
         :: zero point energy           0.027316927258 Eh   ::
         :: G(RRHO) w/o ZPVE           -0.025664429333 Eh   ::
         :: G(RRHO) contrib.            0.001652497925 Eh   ::
         :::::::::::::::::::::::::::::::::::::::::::::::::::::

           -------------------------------------------------
          | TOTAL ENERGY               -9.142235158475 Eh   |
          | TOTAL ENTHALPY             -9.109565896496 Eh   |
          | TOTAL FREE ENERGY          -9.140582660550 Eh   |
          | GRADIENT NORM               0.000394799904 Eh/α |
          | HOMO-LUMO GAP               5.175211521983 eV   |
           -------------------------------------------------

 * finished run on 2025/10/18 at 07:10:45.285
normal termination of xtb
