                         Program Version 5.0.4 -  RELEASE  -
|  1> !PBE D3BJ def2-TZVP CPCM(water)
|  2>
|  3> *xyz -1 1
|  4> N     -4.977829   -1.457749   -2.584150
|  5> C     -5.262634   -2.881313   -2.650855
|  6> *
|  7>
|  8>                          ****END OF INPUT****

CARTESIAN COORDINATES (ANGSTROEM)
---------------------------------
  N     -4.977829   -1.457749   -2.584150
  C     -5.262634   -2.881313   -2.650855

 Total Charge           Charge          ....   -1
 Multiplicity           Mult            ....    1
 Number of Electrons    NEL             ....   14
 Basis Dimension        Dim             ....   62

ORBITAL ENERGIES
----------------

  NO   OCC          E(Eh)            E(eV)
   0   2.0000     -13.959304      -379.8520
   1   2.0000      -9.902386      -269.4576
   2   2.0000      -0.669148       -18.2084
   3   2.0000      -0.362765        -9.8713
   4   2.0000      -0.213392        -5.8067
   5   2.0000      -0.213369        -5.8061
   6   2.0000      -0.208508        -5.6738
   7   0.0000      -0.030123        -0.8197
   8   0.0000      -0.030111        -0.8194
   9   0.0000       0.125828         3.4239
  10   0.0000       0.161137         4.3848
  11   0.0000       0.229697         6.2504

MULLIKEN ATOMIC CHARGES
-----------------------
   0 N :   -0.563196
   1 C :   -0.436804
Sum of atomic charges:   -1.0000000

LOEWDIN ATOMIC CHARGES
----------------------
   0 N :   -0.427655
   1 C :   -0.572345

  Mayer bond orders larger than 0.100000
B(  0-N ,  1-C ) :   2.7316

Dispersion correction           -0.000537430
FINAL SINGLE POINT ENERGY       -92.806281042419

DIPOLE MOMENT
-------------
                                X             Y             Z
Electronic contribution:      0.00723       0.03871       0.00231
Nuclear contribution   :      0.00072       0.00362       0.00017
                        -----------------------------------------
Total Dipole Moment    :      0.00796       0.04233       0.00248
                        -----------------------------------------
Magnitude (a.u.)       :      0.04314
Magnitude (Debye)      :      0.10965

Rotational constants in cm-1:     0.000000     1.234333     1.234333
Rotational constants in MHz :     0.000000 37004.383353 37004.383353

                             ****ORCA TERMINATED NORMALLY****
TOTAL RUN TIME: 0 days 0 hours 0 minutes 9 seconds 521 msec
