   * xtb version 6.7.1 (edcfbbe) compiled by 'albert@albert-system' on 2024-07-22

   ID    Z sym.   atoms
    1    6 C      1, 2
    2   17 Cl     3
    3    1 H      4, 5
    4    8 O      6, 7

          program call               : xtb xyz.xyz --alpb water --charge -1 --ohess
      * Solvation model:               ALPB
        Solvent                        water
        Solvent mass                       1.8000E+01 g/mol
          :  Hamiltonian                  GFN2-xTB          :
 * total energy  :   -18.2096280 Eh     change       -0.2625704E-09 Eh
 * total energy  :   -18.2426026 Eh     change       -0.3297452E-01 Eh
 * total energy  :   -18.1995586 Eh     change        0.4304401E-01 Eh
 * total energy  :   -18.2463591 Eh     change       -0.4680051E-01 Eh
 * total energy  :   -18.2525032 Eh     change       -0.6144168E-02 Eh
 * total energy  :   -18.2598464 Eh     change       -0.7343177E-02 Eh
 * total energy  :   -18.2720820 Eh     change       -0.1223554E-01 Eh
 * total energy  :   -18.2877833 Eh     change       -0.1570137E-01 Eh
 * total energy  :   -18.2748366 Eh     change        0.1294676E-01 Eh
 * total energy  :   -18.3113582 Eh     change       -0.3652165E-01 Eh
 * total energy  :   -18.3203466 Eh     change       -0.8081669E-04 Eh
 * total energy  :   -18.3201680 Eh     change        0.1785767E-03 Eh
 * total energy  :   -18.3204281 Eh     change       -0.2600704E-03 Eh
 * total energy  :   -18.3204378 Eh     change       -0.9780020E-05 Eh
 * total energy  :   -18.3182109 Eh     change        0.2226970E-02 Eh
 * total energy  :   -18.3217852 Eh     change       -0.3574366E-02 Eh
 * total energy  :   -18.3218292 Eh     change       -0.4393414E-04 Eh
 * total energy  :   -18.3218358 Eh     change       -0.6588822E-05 Eh
 * total energy  :   -18.3218372 Eh     change       -0.1431974E-05 Eh
   *** GEOMETRY OPTIMIZATION CONVERGED AFTER 26 ITERATIONS ***

 final structure:
================
7
 xtb: 6.7.1 (edcfbbe)
C           -0.18183708864031       -0.78410141381877        0.93967873725806
C           -0.37533103486870       -0.76218345385327       -0.61058794350711
Cl          -1.71369582947495       -1.29533092278586        1.64222054276903
H            0.56946158654682       -1.51629235420392        1.22905401226488
H            0.03546185220611        0.21207427592578        1.31993181600551
O           -0.74772676227142        0.31704936696297       -1.09976930263671
O           -0.15361972349746       -1.83012049822687       -1.20475586215374

          :  Hamiltonian                  GFN2-xTB          :
         :: gradient norm              0.000273794353 Eh/a0 ::
         :: HOMO-LUMO gap              4.653262039193 eV    ::
         :: SCC energy               -18.427591290619 Eh    ::
         :: -> dispersion             -0.004444345124 Eh    ::
         :: -> Gsolv                  -0.103330459543 Eh    ::
         :: repulsion energy           0.105754094556 Eh    ::

    * Orbital Energies and Occupations

         #    Occupation            Energy/Eh            Energy/eV
      -------------------------------------------------------------
         1        2.0000           -1.0645432             -28.9677
       ...           ...                  ...                  ...
         3        2.0000           -0.6764770             -18.4079
         4        2.0000           -0.6259587             -17.0332
         5        2.0000           -0.5728362             -15.5877
         6        2.0000           -0.5368967             -14.6097
         7        2.0000           -0.5320634             -14.4782
         8        2.0000           -0.5276690             -14.3586
         9        2.0000           -0.4925035             -13.4017
        10        2.0000           -0.4917020             -13.3799
        11        2.0000           -0.4347991             -11.8315
        12        2.0000           -0.4228715             -11.5069
        13        2.0000           -0.4136639             -11.2564
        14        2.0000           -0.3973722             -10.8130
        15        2.0000           -0.3758962             -10.2287 (HOMO)
        16                         -0.2048919              -5.5754 (LUMO)
        17                         -0.1404522              -3.8219
        18                          0.0112467               0.3060
        19                          0.0159635               0.4344
        20                          0.0191893               0.5222
        21                          0.0219796               0.5981
        22                          0.1000048               2.7213
        23                          0.1558587               4.2411
        24                          0.1727266               4.7001
        25                          0.2052444               5.5850
        26                          0.4133965              11.2491
        27                          0.6385175              17.3749
      -------------------------------------------------------------
                  HL-Gap            0.1710043 Eh            4.6533 eV

     #   Z          covCN         q      C6AA      α(0)
     1   6 C        3.711    -0.005    20.796     6.517
     2   6 C        2.729     0.372    20.689     7.447
     3  17 Cl       0.937    -0.220   106.105    15.759
     4   1 H        0.925     0.059     2.210     2.325
     5   1 H        0.925     0.059     2.209     2.324
     6   8 O        0.856    -0.633    26.942     6.959
     7   8 O        0.856    -0.633    26.938     6.959

Wiberg/Mayer (AO) data.
largest (>0.10) Wiberg bond orders for each atom

     #   Z sym  total        # sym  WBO       # sym  WBO       # sym  WBO
 ---------------------------------------------------------------------------
     1   6 C    3.914 --     5 H    0.982     4 H    0.982     3 Cl   0.938
                             2 C    0.904
     2   6 C    3.939 --     7 O    1.510     6 O    1.509     1 C    0.904
     3  17 Cl   0.993 --     1 C    0.938
     4   1 H    0.997 --     1 C    0.982
     5   1 H    0.997 --     1 C    0.982
     6   8 O    1.812 --     2 C    1.509     7 O    0.226
     7   8 O    1.812 --     2 C    1.510     6 O    0.226
 ---------------------------------------------------------------------------

molecular dipole:
                 x           y           z       tot (Debye)
 q only:        1.596       1.673       1.919
   full:        1.882       1.770       1.693       7.850

 projected vibrational frequencies (cm⁻¹)
eigval :       -0.00    -0.00    -0.00     0.00     0.00     0.00
eigval :      -15.80   163.03   402.42   575.75   676.31   780.83
eigval :      854.51   920.45  1090.25  1186.87  1312.33  1392.70
eigval :     1700.79  2999.80  3017.77

   temp. (K)  partition function   enthalpy   heat capacity  entropy
                                   cal/mol     cal/K/mol   cal/K/mol   J/K/mol
 298.15  VIB   34.5                 1503.020      8.818      9.679
         ROT  0.123E+06              888.752      2.981     26.267
         INT  0.423E+07             2391.772     11.798     35.946
         TR   0.875E+27             1481.254      4.968     39.499
         TOT                        3873.0260    16.7666    75.4459   315.6656

       T/K    H(0)-H(T)+PV         H(T)/Eh          T*S/Eh         G(T)/Eh
   ------------------------------------------------------------------------
    298.15    0.617206E-02    0.451050E-01    0.358468E-01    0.925825E-02
   ------------------------------------------------------------------------

         :::::::::::::::::::::::::::::::::::::::::::::::::::::
         ::                  THERMODYNAMIC                  ::
         :::::::::::::::::::::::::::::::::::::::::::::::::::::
         :: total free energy         -18.312578947216 Eh   ::
         ::.................................................::
         :: total energy              -18.321837196190 Eh   ::
         :: zero point energy           0.038932964091 Eh   ::
         :: G(RRHO) w/o ZPVE           -0.029674715118 Eh   ::
         :: G(RRHO) contrib.            0.009258248973 Eh   ::
         :::::::::::::::::::::::::::::::::::::::::::::::::::::

           -------------------------------------------------
          | TOTAL ENERGY              -18.321837196190 Eh   |
          | TOTAL ENTHALPY            -18.276732172355 Eh   |
          | TOTAL FREE ENERGY         -18.312578947216 Eh   |
          | GRADIENT NORM               0.000273902082 Eh/α |
          | HOMO-LUMO GAP               4.653263437544 eV   |
           -------------------------------------------------

 * finished run on 2025/10/18 at 21:05:40.688
