   * xtb version 6.7.1 (edcfbbe) compiled by 'albert@albert-system' on 2024-07-22

   ID    Z sym.   atoms
    1    6 C      1-6
    2    8 O      7, 8, 13
    3    1 H      9, 10, 12, 14
    4    7 N      11

          program call               : xtb xyz.xyz --alpb water --charge -1 --ohess
      * Solvation model:               ALPB
        Solvent                        water
        Solvent mass                       1.8000E+01 g/mol
          :  Hamiltonian                  GFN2-xTB          :
 * total energy  :   -30.1286690 Eh     change       -0.8842456E-09 Eh
 * total energy  :   -30.2008106 Eh     change       -0.7214166E-01 Eh
 * total energy  :   -30.2313800 Eh     change       -0.3056940E-01 Eh
 * total energy  :   -30.2369173 Eh     change       -0.5537237E-02 Eh
 * total energy  :   -30.2375013 Eh     change       -0.5840268E-03 Eh
 * total energy  :   -30.2376127 Eh     change       -0.1113990E-03 Eh
 * total energy  :   -30.2376960 Eh     change       -0.8330990E-04 Eh
 * total energy  :   -30.2377152 Eh     change       -0.1920465E-04 Eh
 * total energy  :   -30.2376866 Eh     change        0.2858070E-04 Eh
 * total energy  :   -30.2377354 Eh     change       -0.4878096E-04 Eh
 * total energy  :   -30.2377374 Eh     change       -0.2040186E-05 Eh
 * total energy  :   -30.2377418 Eh     change       -0.4325774E-05 Eh
   *** GEOMETRY OPTIMIZATION CONVERGED AFTER 12 ITERATIONS ***

 final structure:
================
14
 xtb: 6.7.1 (edcfbbe)
C           -2.06708688815213       -2.87800146601025        1.60501464144352
C           -2.54029718335418       -2.20395711504228        0.42094416267719
C           -3.70894930620781       -2.53954793524050       -0.17773343962635
C           -4.51342174332983       -3.57549348366866        0.34804386056185
C           -4.08701538535793       -4.25614157127234        1.51068097621117
C           -2.91928721048115       -3.92464929914765        2.11346061112647
O           -6.39581533444269       -4.83287992063257        0.21195621212942
O           -0.98299826724078       -2.57347747708159        2.15731132466264
H           -1.91895692102125       -1.41399058413944        0.02557317306079
H           -4.05695904910461       -2.03175895783390       -1.06568149469122
N           -5.68962827458580       -3.91491338587508       -0.26064878799661
H           -4.71981418333034       -5.04284327973311        1.89546355765329
O           -6.05849202918041       -3.30810783075723       -1.29018534438203
H           -2.58541822421109       -4.43997569356540        3.00196954716985

          :  Hamiltonian                  GFN2-xTB          :
         :: gradient norm              0.000739711753 Eh/a0 ::
         :: HOMO-LUMO gap              1.928262361784 eV    ::
         :: SCC energy               -30.571228948445 Eh    ::
         :: -> dispersion             -0.012645704601 Eh    ::
         :: -> Gsolv                  -0.082539478205 Eh    ::
         :: repulsion energy           0.333487181327 Eh    ::

    * Orbital Energies and Occupations

         #    Occupation            Energy/Eh            Energy/eV
      -------------------------------------------------------------
         1        2.0000           -0.7340882             -19.9756
       ...           ...                  ...                  ...
        14        2.0000           -0.5075947             -13.8124
        15        2.0000           -0.4995326             -13.5930
        16        2.0000           -0.4873716             -13.2621
        17        2.0000           -0.4812792             -13.0963
        18        2.0000           -0.4554370             -12.3931
        19        2.0000           -0.4535862             -12.3427
        20        2.0000           -0.4438982             -12.0791
        21        2.0000           -0.4372312             -11.8977
        22        2.0000           -0.4218109             -11.4781
        23        2.0000           -0.4208556             -11.4521
        24        2.0000           -0.4119307             -11.2092
        25        2.0000           -0.3688182             -10.0361
        26        2.0000           -0.3656160              -9.9489 (HOMO)
        27                         -0.2947536              -8.0207 (LUMO)
        28                         -0.2196674              -5.9775
        29                         -0.1887172              -5.1353
        30                         -0.0845259              -2.3001
        31                          0.0387320               1.0540
        32                          0.1238260               3.3695
        33                          0.1468558               3.9961
        34                          0.1572076               4.2778
        35                          0.1841511               5.0110
        36                          0.2044154               5.5624
        37                          0.2787057               7.5840
       ...                                ...                  ...
        44                          0.6994918              19.0341
      -------------------------------------------------------------
                  HL-Gap            0.0708624 Eh            1.9283 eV

     #   Z          covCN         q      C6AA      α(0)
     1   6 C        2.831     0.206    23.640     7.967
     2   6 C        2.912    -0.077    29.932     8.971
     3   6 C        2.910    -0.029    28.728     8.789
     4   6 C        2.913    -0.014    28.364     8.733
     5   6 C        2.910    -0.029    28.727     8.789
     6   6 C        2.912    -0.077    29.932     8.971
     7   8 O        0.929    -0.542    24.690     6.664
     8   8 O        0.858    -0.574    25.485     6.768
     9   1 H        0.926     0.044     2.395     2.420
    10   1 H        0.926     0.056     2.251     2.346
    11   7 N        2.765     0.479    14.262     5.609
    12   1 H        0.926     0.056     2.252     2.347
    13   8 O        0.929    -0.542    24.685     6.663
    14   1 H        0.926     0.044     2.395     2.420

Wiberg/Mayer (AO) data.
largest (>0.10) Wiberg bond orders for each atom

     #   Z sym  total        # sym  WBO       # sym  WBO       # sym  WBO
 ---------------------------------------------------------------------------
     1   6 C    3.954 --     8 O    1.528     6 C    1.155     2 C    1.155
     2   6 C    3.987 --     3 C    1.636     1 C    1.155     9 H    0.969
     3   6 C    3.989 --     2 C    1.636     4 C    1.238    10 H    0.963
     4   6 C    3.941 --     5 C    1.238     3 C    1.238    11 N    1.161
     5   6 C    3.989 --     6 C    1.636     4 C    1.238    12 H    0.963
     6   6 C    3.987 --     5 C    1.636     1 C    1.155    14 H    0.969
     7   8 O    1.726 --    11 N    1.300    13 O    0.228
     8   8 O    1.768 --     1 C    1.528
     9   1 H    0.997 --     2 C    0.969
    10   1 H    0.997 --     3 C    0.963
    11   7 N    3.853 --    13 O    1.300     7 O    1.300     4 C    1.161
    12   1 H    0.997 --     5 C    0.963
    13   8 O    1.726 --    11 N    1.300     7 O    0.228
    14   1 H    0.997 --     6 C    0.969
 ---------------------------------------------------------------------------

molecular dipole:
                 x           y           z       tot (Debye)
 q only:        7.908       6.594      -0.962
   full:        7.775       6.557      -1.030      25.983

 projected vibrational frequencies (cm⁻¹)
eigval :       -0.00     0.00     0.00     0.00     0.00     0.00
eigval :       88.17    95.37   213.60   248.42   353.46   370.58
eigval :      428.65   442.36   542.83   609.56   618.20   656.27
eigval :      706.28   779.75   820.97   830.34   853.88   921.49
eigval :      923.36   968.98  1104.06  1142.10  1170.77  1233.63
eigval :     1301.76  1322.29  1377.69  1429.09  1482.43  1524.27
eigval :     1553.48  1611.18  3074.15  3076.00  3085.82  3089.66

   temp. (K)  partition function   enthalpy   heat capacity  entropy
                                   cal/mol     cal/K/mol   cal/K/mol   J/K/mol
 298.15  VIB   49.1                 3190.272     23.623     18.327
         ROT  0.280E+06              888.752      2.981     27.910
         INT  0.138E+08             4079.024     26.604     46.236
         TR   0.157E+28             1481.254      4.968     40.662
         TOT                        5560.2780    31.5722    86.8978   363.5805

       T/K    H(0)-H(T)+PV         H(T)/Eh          T*S/Eh         G(T)/Eh
   ------------------------------------------------------------------------
    298.15    0.886087E-02    0.100103E+00    0.412880E-01    0.588155E-01
   ------------------------------------------------------------------------

         :::::::::::::::::::::::::::::::::::::::::::::::::::::
         ::                  THERMODYNAMIC                  ::
         :::::::::::::::::::::::::::::::::::::::::::::::::::::
         :: total free energy         -30.178926255776 Eh   ::
         ::.................................................::
         :: total energy              -30.237741766844 Eh   ::
         :: zero point energy           0.091242610380 Eh   ::
         :: G(RRHO) w/o ZPVE           -0.032427099312 Eh   ::
         :: G(RRHO) contrib.            0.058815511068 Eh   ::
         :::::::::::::::::::::::::::::::::::::::::::::::::::::

           -------------------------------------------------
          | TOTAL ENERGY              -30.237741766844 Eh   |
          | TOTAL ENTHALPY            -30.137638289419 Eh   |
          | TOTAL FREE ENERGY         -30.178926255776 Eh   |
          | GRADIENT NORM               0.000739837661 Eh/α |
          | HOMO-LUMO GAP               1.928262919014 eV   |
           -------------------------------------------------

 * finished run on 2025/10/18 at 05:14:49.305
