                         Program Version 5.0.4 -  RELEASE  -
|  1> !OPT PBE D3BJ def2-TZVP CPCM(water)
|  2>
|  3> *xyz -1 1
|  4> C     -3.803256   -1.778633    1.780479
|  5> S     -5.308593   -2.433208    2.581371
|  6> H     -3.991236   -1.399877    0.769186
|  7> H     -3.354809   -0.946728    2.335758
|  8> H     -3.014722   -2.533149    1.678385
|  9> *
| 10>
| 11>                          ****END OF INPUT****
 Total Charge           Charge          ....   -1
 Multiplicity           Mult            ....    1
 Number of Electrons    NEL             ....   26
Dispersion correction           -0.002353229
FINAL SINGLE POINT ENERGY      -438.020940022919
Dispersion correction            ... done
Dispersion correction           -0.002351676
FINAL SINGLE POINT ENERGY      -438.021132349357
Dispersion correction            ... done
Dispersion correction           -0.002351207
FINAL SINGLE POINT ENERGY      -438.021196571330
Dispersion correction            ... done
Dispersion correction           -0.002351358
FINAL SINGLE POINT ENERGY      -438.021222894983
Dispersion correction            ... done
Dispersion correction           -0.002351620
FINAL SINGLE POINT ENERGY      -438.021225988920
Dispersion correction            ... done
                    ***********************HURRAY********************

CARTESIAN COORDINATES (ANGSTROEM)
---------------------------------
  C     -3.790139   -1.773335    1.772672
  S     -5.310272   -2.433502    2.583101
  H     -4.002128   -1.397846    0.759329
  H     -3.358127   -0.939684    2.348329
  H     -3.011950   -2.547227    1.681748

 Multiplicity           Mult            ....    1
 Number of Electrons    NEL             ....   26
 Basis Dimension        Dim             ....   86

ORBITAL ENERGIES
----------------

  NO   OCC          E(Eh)            E(eV)
   0   2.0000     -87.940021     -2392.9696
   1   2.0000      -9.869606      -268.5656
   2   2.0000      -7.565208      -205.8598
   3   2.0000      -5.587472      -152.0428
   4   2.0000      -5.580074      -151.8415
   5   2.0000      -5.580068      -151.8414
   6   2.0000      -0.630598       -17.1595
   7   2.0000      -0.490630       -13.3507
   8   2.0000      -0.336549        -9.1580
   9   2.0000      -0.336434        -9.1548
  10   2.0000      -0.260534        -7.0895
  11   2.0000      -0.139559        -3.7976
  12   2.0000      -0.139496        -3.7959
  13   0.0000       0.036881         1.0036
  14   0.0000       0.072638         1.9766
  15   0.0000       0.105855         2.8805
  16   0.0000       0.105923         2.8823
  17   0.0000       0.173326         4.7165

MULLIKEN ATOMIC CHARGES
-----------------------
   0 C :   -0.379786
   1 S :   -0.983996
   2 H :    0.121337
   3 H :    0.121155
   4 H :    0.121291
Sum of atomic charges:   -1.0000000

LOEWDIN ATOMIC CHARGES
----------------------
   0 C :   -0.657446
   1 S :   -0.611886
   2 H :    0.089789
   3 H :    0.089735
   4 H :    0.089808

  Mayer bond orders larger than 0.100000
B(  0-C ,  1-S ) :   1.1784 B(  0-C ,  2-H ) :   0.9660 B(  0-C ,  3-H ) :   0.9662
B(  0-C ,  4-H ) :   0.9660

Dispersion correction           -0.002351713
FINAL SINGLE POINT ENERGY      -438.021226138452

DIPOLE MOMENT
-------------
                                X             Y             Z
Electronic contribution:     -2.51545      -1.09521       1.33717
Nuclear contribution   :      3.80360       1.65337      -2.02468
                        -----------------------------------------
Total Dipole Moment    :      1.28815       0.55816      -0.68751
                        -----------------------------------------
Magnitude (a.u.)       :      1.56318
Magnitude (Debye)      :      3.97329

Rotational constants in cm-1:     5.308982     0.422008     0.421982
Rotational constants in MHz : 159159.279344 12651.472899 12650.710636

                             ****ORCA TERMINATED NORMALLY****
TOTAL RUN TIME: 0 days 0 hours 0 minutes 40 seconds 872 msec
