                         Program Version 5.0.4 -  RELEASE  -
|  1> !OPT PBE D3BJ def2-TZVP CPCM(water)
|  2>
|  3> *xyz -1 1
|  4> C     -3.388817   -4.189429   -2.962457
|  5> C     -4.203620   -2.927800   -2.578216
|  6> O     -3.379849   -2.125768   -1.921383
|  7> H     -5.096893   -3.298751   -2.050349
|  8> H     -4.646623   -2.559942   -3.517560
|  9> C     -4.236954   -5.189377   -3.740434
| 10> H     -2.521123   -3.918193   -3.580081
| 11> H     -3.002226   -4.689051   -2.063311
| 12> H     -4.603110   -4.750488   -4.673975
| 13> H     -3.643083   -6.073935   -3.991460
| 14> H     -5.099490   -5.515780   -3.150608
| 15> *
| 16>
| 17>                          ****END OF INPUT****
 Total Charge           Charge          ....   -1
 Multiplicity           Mult            ....    1
 Number of Electrons    NEL             ....   34
Dispersion correction           -0.006601684
FINAL SINGLE POINT ENERGY      -193.669782341737
Dispersion correction            ... done
Dispersion correction           -0.006506024
FINAL SINGLE POINT ENERGY      -193.677435314026
Dispersion correction            ... done
Dispersion correction           -0.006503967
FINAL SINGLE POINT ENERGY      -193.677965671709
Dispersion correction            ... done
FINAL SINGLE POINT ENERGY      -193.678057494313
Dispersion correction            ... done
Dispersion correction           -0.006512647
FINAL SINGLE POINT ENERGY      -193.678071982438
Dispersion correction            ... done
Dispersion correction           -0.006513599
FINAL SINGLE POINT ENERGY      -193.678076239312
Dispersion correction            ... done
                    ***********************HURRAY********************

CARTESIAN COORDINATES (ANGSTROEM)
---------------------------------
  C     -3.393474   -4.214997   -2.971519
  C     -4.161156   -2.930086   -2.564018
  O     -3.427416   -1.999522   -1.897204
  H     -5.069011   -3.306756   -1.990093
  H     -4.620011   -2.551271   -3.534535
  C     -4.237954   -5.216444   -3.758602
  H     -2.512743   -3.907483   -3.564476
  H     -3.000582   -4.684822   -2.051382
  H     -4.609736   -4.769213   -4.694808
  H     -3.672167   -6.121547   -4.026696
  H     -5.117537   -5.536372   -3.176503

 Multiplicity           Mult            ....    1
 Number of Electrons    NEL             ....   34
 Basis Dimension        Dim             ....  166

ORBITAL ENERGIES
----------------

  NO   OCC          E(Eh)            E(eV)
   0   2.0000     -18.611888      -506.4552
   1   2.0000      -9.874571      -268.7007
   2   2.0000      -9.856782      -268.2167
   3   2.0000      -9.848128      -267.9812
   4   2.0000      -0.793122       -21.5820
   5   2.0000      -0.668418       -18.1886
   6   2.0000      -0.551004       -14.9936
   7   2.0000      -0.480126       -13.0649
   8   2.0000      -0.387528       -10.5452
   9   2.0000      -0.347341        -9.4516
  10   2.0000      -0.325955        -8.8697
  11   2.0000      -0.317894        -8.6503
  12   2.0000      -0.276413        -7.5216
  13   2.0000      -0.265687        -7.2297
  14   2.0000      -0.264789        -7.2053
  15   2.0000      -0.125374        -3.4116
  16   2.0000      -0.122972        -3.3462
  17   0.0000       0.033376         0.9082
  18   0.0000       0.069141         1.8814
  19   0.0000       0.072306         1.9675
  20   0.0000       0.078168         2.1271
  21   0.0000       0.110328         3.0022

MULLIKEN ATOMIC CHARGES
-----------------------
   0 C :   -0.053001
   1 C :   -0.063020
   2 O :   -0.829284
   3 H :   -0.028000
   4 H :   -0.028487
   5 C :   -0.426667
   6 H :    0.043747
   7 H :    0.046921
   8 H :    0.109254
   9 H :    0.119649
  10 H :    0.108888
Sum of atomic charges:   -1.0000000

LOEWDIN ATOMIC CHARGES
----------------------
   0 C :   -0.341535
   1 C :   -0.563175
   2 O :   -0.460682
   3 H :    0.067156
   4 H :    0.066944
   5 C :   -0.349336
   6 H :    0.114850
   7 H :    0.115284
   8 H :    0.116477
   9 H :    0.117393
  10 H :    0.116626

  Mayer bond orders larger than 0.100000
B(  0-C ,  1-C ) :   0.9033 B(  0-C ,  2-O ) :  -0.1843 B(  0-C ,  5-C ) :   0.9524
B(  0-C ,  6-H ) :   0.9342 B(  0-C ,  7-H ) :   0.9358 B(  1-C ,  2-O ) :   1.5442
B(  1-C ,  3-H ) :   0.9142 B(  1-C ,  4-H ) :   0.9156 B(  5-C ,  8-H ) :   0.9692
B(  5-C ,  9-H ) :   0.9606 B(  5-C , 10-H ) :   0.9692

Dispersion correction           -0.006513323
FINAL SINGLE POINT ENERGY      -193.678076822439

DIPOLE MOMENT
-------------
                                X             Y             Z
Electronic contribution:      1.25285       2.76602       1.76106
Nuclear contribution   :     -1.78650      -5.42841      -3.23911
                        -----------------------------------------
Total Dipole Moment    :     -0.53365      -2.66239      -1.47805
                        -----------------------------------------
Magnitude (a.u.)       :      3.09156
Magnitude (Debye)      :      7.85812

Rotational constants in cm-1:     0.924823     0.128977     0.120930
Rotational constants in MHz : 27725.486510  3866.620882  3625.399704

                             ****ORCA TERMINATED NORMALLY****
TOTAL RUN TIME: 0 days 0 hours 2 minutes 57 seconds 595 msec
