                         Program Version 5.0.4 -  RELEASE  -
|  1> !OPT PBE D3BJ def2-TZVP CPCM(water)
|  2>
|  3> * xyz -1 1
|  4> O     -1.306100    4.397319   -1.404301
|  5> C     -1.564177    3.413491   -0.558167
|  6> C     -3.038023    3.020679   -0.762769
|  7> H     -0.998724    2.473900   -0.658580
|  8> H     -1.465496    3.610594    0.520694
|  9> H     -3.232657    2.674867   -1.785723
| 10> H     -3.300293    2.199808   -0.085083
| 11> H     -3.718050    3.853891   -0.545367
| 12> *
| 13>
| 14>                          ****END OF INPUT****
 Total Charge           Charge          ....   -1
 Multiplicity           Mult            ....    1
 Number of Electrons    NEL             ....   26
Dispersion correction           -0.003778003
FINAL SINGLE POINT ENERGY      -154.398051616601
Dispersion correction            ... done
Dispersion correction           -0.003739418
FINAL SINGLE POINT ENERGY      -154.404601148750
Dispersion correction            ... done
Dispersion correction           -0.003735091
FINAL SINGLE POINT ENERGY      -154.405022070893
Dispersion correction            ... done
FINAL SINGLE POINT ENERGY      -154.405083852001
Dispersion correction            ... done
Dispersion correction           -0.003736351
FINAL SINGLE POINT ENERGY      -154.405095912462
Dispersion correction            ... done
Dispersion correction           -0.003736896
FINAL SINGLE POINT ENERGY      -154.405099687846
Dispersion correction            ... done
                    ***********************HURRAY********************

CARTESIAN COORDINATES (ANGSTROEM)
---------------------------------
  O     -1.202848    4.436375   -1.396730
  C     -1.587435    3.422419   -0.576157
  C     -3.064071    2.991461   -0.744628
  H     -0.982341    2.468313   -0.702006
  H     -1.468886    3.650752    0.531070
  H     -3.244694    2.662794   -1.782269
  H     -3.341602    2.165671   -0.063968
  H     -3.731644    3.846765   -0.544609

 Multiplicity           Mult            ....    1
 Number of Electrons    NEL             ....   26
 Basis Dimension        Dim             ....  123

ORBITAL ENERGIES
----------------

  NO   OCC          E(Eh)            E(eV)
   0   2.0000     -18.611929      -506.4563
   1   2.0000      -9.876944      -268.7653
   2   2.0000      -9.842642      -267.8319
   3   2.0000      -0.793423       -21.5901
   4   2.0000      -0.618210       -16.8223
   5   2.0000      -0.483250       -13.1499
   6   2.0000      -0.364720        -9.9245
   7   2.0000      -0.343450        -9.3457
   8   2.0000      -0.298514        -8.1230
   9   2.0000      -0.278770        -7.5857
  10   2.0000      -0.266401        -7.2491
  11   2.0000      -0.125906        -3.4261
  12   2.0000      -0.123573        -3.3626
  13   0.0000       0.041965         1.1419
  14   0.0000       0.074686         2.0323
  15   0.0000       0.096123         2.6156
  16   0.0000       0.107424         2.9231
  17   0.0000       0.128686         3.5017

MULLIKEN ATOMIC CHARGES
-----------------------
   0 O :   -0.841733
   1 C :   -0.041729
   2 C :   -0.278049
   3 H :   -0.019254
   4 H :   -0.019454
   5 H :    0.070858
   6 H :    0.058287
   7 H :    0.071074
Sum of atomic charges:   -1.0000000

LOEWDIN ATOMIC CHARGES
----------------------
   0 O :   -0.462739
   1 C :   -0.590516
   2 C :   -0.379868
   3 H :    0.064829
   4 H :    0.064853
   5 H :    0.100333
   6 H :    0.102767
   7 H :    0.100341

  Mayer bond orders larger than 0.100000
B(  0-O ,  1-C ) :   1.4955 B(  0-O ,  2-C ) :  -0.1627 B(  1-C ,  2-C ) :   0.9224
B(  1-C ,  3-H ) :   0.9166 B(  1-C ,  4-H ) :   0.9164 B(  2-C ,  5-H ) :   0.9587
B(  2-C ,  6-H ) :   0.9297 B(  2-C ,  7-H ) :   0.9588

Dispersion correction           -0.003736908
FINAL SINGLE POINT ENERGY      -154.405100250197

DIPOLE MOMENT
-------------
                                X             Y             Z
Electronic contribution:      1.60519       1.82334      -1.11586
Nuclear contribution   :     -2.80935      -3.06905       1.83586
                        -----------------------------------------
Total Dipole Moment    :     -1.20416      -1.24571       0.72000
                        -----------------------------------------
Magnitude (a.u.)       :      1.87622
Magnitude (Debye)      :      4.76897

Rotational constants in cm-1:     1.272762     0.318569     0.281971
Rotational constants in MHz : 38156.431229  9550.452324  8453.273266

                             ****ORCA TERMINATED NORMALLY****
TOTAL RUN TIME: 0 days 0 hours 1 minutes 36 seconds 28 msec
