                         Program Version 5.0.4 -  RELEASE  -
|  1> !SP HF def2-SVP CPCM(water)
|  2>
|  3> *xyz -1 1
|  4> C           -1.13767655260094       -0.72916024477389        0.64537205426005
|  5> C           -3.02419669808064        2.11232125050496       -0.21961084024827
|  6> F           -2.00886058928119       -1.61535443546618        0.19853059363140
|  7> F            0.00406683706142       -0.77484079908023       -0.01471584703152
|  8> F           -0.96338760568294       -0.81471721888917        1.95063305239769
|  9> O           -3.53388193737802        2.07748970007225        0.80361493316362
| 10> O           -2.50714845403771        2.13730774763228       -1.23940394617297
| 11> *
| 12>
| 13>                          ****END OF INPUT****

CARTESIAN COORDINATES (ANGSTROEM)
---------------------------------
  C     -1.137677   -0.729160    0.645372
  C     -3.024197    2.112321   -0.219611
  F     -2.008861   -1.615354    0.198531
  F      0.004067   -0.774841   -0.014716
  F     -0.963388   -0.814717    1.950633
  O     -3.533882    2.077490    0.803615
  O     -2.507148    2.137308   -1.239404

 Total Charge           Charge          ....   -1
 Multiplicity           Mult            ....    1
 Number of Electrons    NEL             ....   56
 Basis Dimension        Dim             ....   98

ORBITAL ENERGIES
----------------

  NO   OCC          E(Eh)            E(eV)
   0   2.0000     -26.248303      -714.2526
   1   2.0000     -26.248242      -714.2510
   2   2.0000     -26.247338      -714.2264
   3   2.0000     -20.627070      -561.2911
   4   2.0000     -20.626994      -561.2890
   5   2.0000     -11.451070      -311.5995
   6   2.0000     -11.310167      -307.7653
   7   2.0000      -1.622442       -44.1489
   8   2.0000      -1.536424       -41.8082
   9   2.0000      -1.535756       -41.7900
  10   2.0000      -1.508228       -41.0410
  11   2.0000      -1.457965       -39.6732
  12   2.0000      -0.862646       -23.4738
  13   2.0000      -0.775507       -21.1026
  14   2.0000      -0.746808       -20.3217
  15   2.0000      -0.746664       -20.3178
  16   2.0000      -0.733371       -19.9560
  17   2.0000      -0.713328       -19.4106
  18   2.0000      -0.708200       -19.2711
  19   2.0000      -0.704296       -19.1649
  20   2.0000      -0.637437       -17.3455
  21   2.0000      -0.637304       -17.3419
  22   2.0000      -0.601754       -16.3746
  23   2.0000      -0.601539       -16.3687
  24   2.0000      -0.580263       -15.7898
  25   2.0000      -0.531514       -14.4632
  26   2.0000      -0.531174       -14.4540
  27   2.0000      -0.220312        -5.9950
  28   0.0000       0.232716         6.3325
  29   0.0000       0.239823         6.5259
  30   0.0000       0.255749         6.9593
  31   0.0000       0.423881        11.5344
  32   0.0000       0.432898        11.7798

MULLIKEN ATOMIC CHARGES
-----------------------
   0 C :    0.132198
   1 C :    0.580476
   2 F :   -0.364186
   3 F :   -0.359736
   4 F :   -0.359804
   5 O :   -0.314411
   6 O :   -0.314538
Sum of atomic charges:   -1.0000000

LOEWDIN ATOMIC CHARGES
----------------------
   0 C :   -0.334756
   1 C :    0.268253
   2 F :   -0.205165
   3 F :   -0.203449
   4 F :   -0.203527
   5 O :   -0.160594
   6 O :   -0.160762

  Mayer bond orders larger than 0.100000
B(  0-C ,  1-C ) :   0.1060 B(  0-C ,  2-F ) :   0.8519 B(  0-C ,  3-F ) :   0.8492
B(  0-C ,  4-F ) :   0.8491 B(  1-C ,  5-O ) :   2.0765 B(  1-C ,  6-O ) :   2.0763
B(  5-O ,  6-O ) :   0.1571

FINAL SINGLE POINT ENERGY      -523.403899996268

DIPOLE MOMENT
-------------
                                X             Y             Z
Electronic contribution:      1.34516      -2.45431       0.60988
Nuclear contribution   :     -2.27960       3.59533      -1.04258
                        -----------------------------------------
Total Dipole Moment    :     -0.93445       1.14102      -0.43269
                        -----------------------------------------
Magnitude (a.u.)       :      1.53699
Magnitude (Debye)      :      3.90672

Rotational constants in cm-1:     0.128006     0.038390     0.034951
Rotational constants in MHz :  3837.512689  1150.896351  1047.814635

                             ****ORCA TERMINATED NORMALLY****
TOTAL RUN TIME: 0 days 0 hours 0 minutes 16 seconds 397 msec
