   * xtb version 6.7.1 (edcfbbe) compiled by 'albert@albert-system' on 2024-07-22

   ID    Z sym.   atoms
    1    6 C      1, 2, 6
    2    8 O      3, 5
    3    1 H      4, 7, 8

          program call               : xtb xyz.xyz --alpb water --charge -1 --ohess
      * Solvation model:               ALPB
        Solvent                        water
        Solvent mass                       1.8000E+01 g/mol
          :  Hamiltonian                  GFN2-xTB          :
 * total energy  :   -16.3751608 Eh     change       -0.3186074E-10 Eh
 * total energy  :   -16.3770224 Eh     change       -0.1861661E-02 Eh
 * total energy  :   -16.3773716 Eh     change       -0.3492137E-03 Eh
 * total energy  :   -16.3773407 Eh     change        0.3090978E-04 Eh
 * total energy  :   -16.3774287 Eh     change       -0.8801113E-04 Eh
 * total energy  :   -16.3774307 Eh     change       -0.1924797E-05 Eh
   *** GEOMETRY OPTIMIZATION CONVERGED AFTER 6 ITERATIONS ***

 final structure:
================
8
 xtb: 6.7.1 (edcfbbe)
C           -5.34115028086597       -3.65687822573439        0.54434579850072
C           -6.34695956655358       -4.22279480754276        1.18695899230199
O           -8.29095806521772       -5.55420486268725        1.22690316652441
H           -5.23690891932815       -3.81989703964200       -0.51660463730225
O           -7.24809153071657       -5.30781315145212       -0.72790720948321
C           -7.37500880901174       -5.09881435252221        0.49981014584722
H           -4.61139691882561       -3.03354363202710        1.03372159535839
H           -6.51184290948064       -4.09958392839216        2.24935314825272

          :  Hamiltonian                  GFN2-xTB          :
         :: gradient norm              0.000598883578 Eh/a0 ::
         :: HOMO-LUMO gap              3.340688382737 eV    ::
         :: SCC energy               -16.550712882136 Eh    ::
         :: -> dispersion             -0.004342206971 Eh    ::
         :: -> Gsolv                  -0.113478934689 Eh    ::
         :: repulsion energy           0.173282207490 Eh    ::

    * Orbital Energies and Occupations

         #    Occupation            Energy/Eh            Energy/eV
      -------------------------------------------------------------
         1        2.0000           -0.6611982             -17.9921
         2        2.0000           -0.6504505             -17.6997
         3        2.0000           -0.6111658             -16.6307
         4        2.0000           -0.5685328             -15.4706
         5        2.0000           -0.5361706             -14.5899
         6        2.0000           -0.5112157             -13.9109
         7        2.0000           -0.5003939             -13.6164
         8        2.0000           -0.4916823             -13.3794
         9        2.0000           -0.4670969             -12.7104
        10        2.0000           -0.4396425             -11.9633
        11        2.0000           -0.4091378             -11.1332
        12        2.0000           -0.3898392             -10.6081
        13        2.0000           -0.3728107             -10.1447
        14        2.0000           -0.3551373              -9.6638 (HOMO)
        15                         -0.2323693              -6.3231 (LUMO)
        16                         -0.1212829              -3.3003
        17                          0.1244952               3.3877
        18                          0.1526830               4.1547
        19                          0.1976709               5.3789
        20                          0.3988827              10.8542
        21                          0.4451592              12.1134
        22                          0.5118076              13.9270
        23                          0.7102284              19.3263
      -------------------------------------------------------------
                  HL-Gap            0.1227680 Eh            3.3407 eV

     #   Z          covCN         q      C6AA      α(0)
     1   6 C        2.837    -0.082    30.040     8.982
     2   6 C        2.884    -0.080    30.006     8.980
     3   8 O        0.857    -0.670    27.908     7.083
     4   1 H        0.926     0.046     2.364     2.404
     5   8 O        0.856    -0.660    27.637     7.048
     6   6 C        2.691     0.360    20.884     7.479
     7   1 H        0.926     0.058     2.220     2.330
     8   1 H        0.925     0.027     2.626     2.534

Wiberg/Mayer (AO) data.
largest (>0.10) Wiberg bond orders for each atom

     #   Z sym  total        # sym  WBO       # sym  WBO       # sym  WBO
 ---------------------------------------------------------------------------
     1   6 C    3.989 --     2 C    1.965     7 H    0.973     4 H    0.973
     2   6 C    3.984 --     1 C    1.965     8 H    0.970     6 C    0.960
     3   8 O    1.768 --     6 C    1.467     5 O    0.216
     4   1 H    0.998 --     1 C    0.973
     5   8 O    1.779 --     6 C    1.477     3 O    0.216
     6   6 C    3.931 --     5 O    1.477     3 O    1.467     2 C    0.960
     7   1 H    0.997 --     1 C    0.973
     8   1 H    0.999 --     2 C    0.970
 ---------------------------------------------------------------------------

molecular dipole:
                 x           y           z       tot (Debye)
 q only:       15.004      10.507      -0.386
   full:       15.075      10.577      -0.300      46.815

 projected vibrational frequencies (cm⁻¹)
eigval :       -0.00    -0.00    -0.00     0.00     0.00     0.00
eigval :       67.67   249.89   437.37   517.03   621.11   779.75
eigval :      852.28   889.53  1026.39  1029.98  1236.53  1322.19
eigval :     1380.65  1627.42  1690.39  3046.36  3082.14  3109.98

   temp. (K)  partition function   enthalpy   heat capacity  entropy
                                   cal/mol     cal/K/mol   cal/K/mol   J/K/mol
 298.15  VIB   7.20                 1399.014     10.077      8.392
         ROT  0.680E+05              888.752      2.981     25.093
         INT  0.490E+06             2287.766     13.058     33.485
         TR   0.579E+27             1481.254      4.968     38.682
         TOT                        3769.0201    18.0259    72.1664   301.9441

       T/K    H(0)-H(T)+PV         H(T)/Eh          T*S/Eh         G(T)/Eh
   ------------------------------------------------------------------------
    298.15    0.600632E-02    0.583282E-01    0.342886E-01    0.240396E-01
   ------------------------------------------------------------------------

         :::::::::::::::::::::::::::::::::::::::::::::::::::::
         ::                  THERMODYNAMIC                  ::
         :::::::::::::::::::::::::::::::::::::::::::::::::::::
         :: total free energy         -16.353391047102 Eh   ::
         ::.................................................::
         :: total energy              -16.377430674720 Eh   ::
         :: zero point energy           0.052321888495 Eh   ::
         :: G(RRHO) w/o ZPVE           -0.028282260877 Eh   ::
         :: G(RRHO) contrib.            0.024039627618 Eh   ::
         :::::::::::::::::::::::::::::::::::::::::::::::::::::

           -------------------------------------------------
          | TOTAL ENERGY              -16.377430674720 Eh   |
          | TOTAL ENTHALPY            -16.319102470362 Eh   |
          | TOTAL FREE ENERGY         -16.353391047102 Eh   |
          | GRADIENT NORM               0.000599153280 Eh/α |
          | HOMO-LUMO GAP               3.340686239005 eV   |
           -------------------------------------------------

 * finished run on 2025/10/18 at 03:39:17.812
