   * xtb version 6.7.1 (edcfbbe) compiled by 'albert@albert-system' on 2024-07-22

   ID    Z sym.   atoms
    1    6 C      1, 2
    2    9 F      3-5
    3    8 O      6, 7

          program call               : xtb xyz.xyz --alpb water --charge -1 --ohess
      * Solvation model:               ALPB
        Solvent                        water
        Solvent mass                       1.8000E+01 g/mol
          :  Hamiltonian                  GFN2-xTB          :
 * total energy  :   -26.8898430 Eh     change       -0.3232969E-11 Eh
 * total energy  :   -26.9381551 Eh     change       -0.4831213E-01 Eh
 * total energy  :   -26.9390790 Eh     change       -0.9239353E-03 Eh
 * total energy  :   -26.9392781 Eh     change       -0.1990886E-03 Eh
 * total energy  :   -26.9395326 Eh     change       -0.2544459E-03 Eh
 * total energy  :   -26.9397165 Eh     change       -0.1839903E-03 Eh
 * total energy  :   -26.9399024 Eh     change       -0.1858399E-03 Eh
 * total energy  :   -26.9401324 Eh     change       -0.2300407E-03 Eh
 * total energy  :   -26.9403534 Eh     change       -0.2209625E-03 Eh
 * total energy  :   -26.9405408 Eh     change       -0.1874141E-03 Eh
 * total energy  :   -26.9481990 Eh     change        0.6252783E-02 Eh
 * total energy  :   -26.9618976 Eh     change       -0.1369867E-01 Eh
 * total energy  :   -26.9638342 Eh     change       -0.1936570E-02 Eh
 * total energy  :   -26.9664323 Eh     change       -0.2598147E-02 Eh
 * total energy  :   -26.9673190 Eh     change       -0.8866744E-03 Eh
 * total energy  :   -26.9675258 Eh     change       -0.2068305E-03 Eh
 * total energy  :   -26.9675499 Eh     change       -0.2409392E-04 Eh
 * total energy  :   -26.9675573 Eh     change       -0.7371287E-05 Eh
 * total energy  :   -26.9675578 Eh     change       -0.4981261E-06 Eh
   *** GEOMETRY OPTIMIZATION CONVERGED AFTER 30 ITERATIONS ***

 final structure:
================
7
 xtb: 6.7.1 (edcfbbe)
C           -1.55927493471667       -0.14928977182691        0.44502907569713
C           -2.40517832964548        1.17058412243013        0.07277072979875
F           -2.20410647858182       -1.28604413262502        0.08962177729778
F           -0.35603901071308       -0.20962673975223       -0.16294604425243
F           -1.30876801830798       -0.27211542928892        1.76574138319373
O           -3.19183147116936        1.51185331204147        0.94789761936895
O           -2.14588675686663        1.62768463902290       -1.03369454110445

          :  Hamiltonian                  GFN2-xTB          :
         :: gradient norm              0.000365062395 Eh/a0 ::
         :: HOMO-LUMO gap              5.148200427430 eV    ::
         :: SCC energy               -27.069014905837 Eh    ::
         :: -> dispersion             -0.004112566789 Eh    ::
         :: -> Gsolv                  -0.088726473687 Eh    ::
         :: repulsion energy           0.101457093326 Eh    ::

    * Orbital Energies and Occupations

         #    Occupation            Energy/Eh            Energy/eV
      -------------------------------------------------------------
         1        2.0000           -0.8849136             -24.0797
       ...           ...                  ...                  ...
         9        2.0000           -0.6240525             -16.9813
        10        2.0000           -0.5868313             -15.9685
        11        2.0000           -0.5610875             -15.2680
        12        2.0000           -0.5551539             -15.1065
        13        2.0000           -0.5513472             -15.0029
        14        2.0000           -0.5428717             -14.7723
        15        2.0000           -0.5417790             -14.7426
        16        2.0000           -0.5408227             -14.7165
        17        2.0000           -0.5384531             -14.6521
        18        2.0000           -0.5325786             -14.4922
        19        2.0000           -0.4428665             -12.0510
        20        2.0000           -0.4303284             -11.7098
        21        2.0000           -0.4077008             -11.0941 (HOMO)
        22                         -0.2185079              -5.9459 (LUMO)
        23                          0.0001523               0.0041
        24                          0.0426163               1.1596
        25                          0.0618004               1.6817
        26                          0.1248953               3.3986
        27                          0.3843933              10.4599
        28                          0.7034179              19.1410
      -------------------------------------------------------------
                  HL-Gap            0.1891929 Eh            5.1482 eV

     #   Z          covCN         q      C6AA      α(0)
     1   6 C        3.314     0.430    18.351     6.832
     2   6 C        2.673     0.373    20.678     7.441
     3   9 F        0.789    -0.234    11.591     4.022
     4   9 F        0.789    -0.229    11.537     4.012
     5   9 F        0.789    -0.229    11.541     4.013
     6   8 O        0.856    -0.556    25.064     6.712
     7   8 O        0.856    -0.556    25.052     6.711

Wiberg/Mayer (AO) data.
largest (>0.10) Wiberg bond orders for each atom

     #   Z sym  total        # sym  WBO       # sym  WBO       # sym  WBO
 ---------------------------------------------------------------------------
     1   6 C    3.724 --     4 F    0.941     5 F    0.940     3 F    0.933
                             2 C    0.778
     2   6 C    3.951 --     7 O    1.560     6 O    1.560     1 C    0.778
     3   9 F    1.047 --     1 C    0.933
     4   9 F    1.054 --     1 C    0.941
     5   9 F    1.053 --     1 C    0.940
     6   8 O    1.897 --     2 C    1.560     7 O    0.254
     7   8 O    1.897 --     2 C    1.560     6 O    0.254
 ---------------------------------------------------------------------------

molecular dipole:
                 x           y           z       tot (Debye)
 q only:        4.338      -1.817      -0.232
   full:        4.419      -1.946      -0.196      12.283

 projected vibrational frequencies (cm⁻¹)
eigval :       -0.00    -0.00    -0.00     0.00     0.00     0.00
eigval :      -13.68   170.66   191.43   334.17   400.52   452.17
eigval :      543.04   635.03   698.89   713.15  1001.62  1037.87
eigval :     1137.15  1297.61  1821.39

   temp. (K)  partition function   enthalpy   heat capacity  entropy
                                   cal/mol     cal/K/mol   cal/K/mol   J/K/mol
 298.15  VIB   94.1                 2324.813     14.036     14.279
         ROT  0.194E+06              888.752      2.981     27.174
         INT  0.182E+08             3213.566     17.016     41.453
         TR   0.116E+28             1481.254      4.968     40.065
         TOT                        4694.8196    21.9846    81.5174   341.0689

       T/K    H(0)-H(T)+PV         H(T)/Eh          T*S/Eh         G(T)/Eh
   ------------------------------------------------------------------------
    298.15    0.748167E-02    0.312849E-01    0.387316E-01   -0.744671E-02
   ------------------------------------------------------------------------

         :::::::::::::::::::::::::::::::::::::::::::::::::::::
         ::                  THERMODYNAMIC                  ::
         :::::::::::::::::::::::::::::::::::::::::::::::::::::
         :: total free energy         -26.975004517932 Eh   ::
         ::.................................................::
         :: total energy              -26.967557812180 Eh   ::
         :: zero point energy           0.023803184090 Eh   ::
         :: G(RRHO) w/o ZPVE           -0.031249889843 Eh   ::
         :: G(RRHO) contrib.           -0.007446705753 Eh   ::
         :::::::::::::::::::::::::::::::::::::::::::::::::::::

           -------------------------------------------------
          | TOTAL ENERGY              -26.967557812180 Eh   |
          | TOTAL ENTHALPY            -26.936272956897 Eh   |
          | TOTAL FREE ENERGY         -26.975004517932 Eh   |
          | GRADIENT NORM               0.000365060009 Eh/α |
          | HOMO-LUMO GAP               5.148200342575 eV   |
           -------------------------------------------------

 * finished run on 2025/10/18 at 19:01:54.394
