   * xtb version 6.7.1 (edcfbbe) compiled by 'albert@albert-system' on 2024-07-22

   ID    Z sym.   atoms
    1    6 C      1, 2, 6
    2    8 O      3, 5, 9
    3    1 H      4, 7, 8, 10, 11

          program call               : xtb tb_lite_results_shiftn0p15_gp159_b0_rot270_complex.xyz --ohess --chrg -1 --alpb water
      * Solvation model:               ALPB
        Solvent                        water
        Solvent mass                       1.8000E+01 g/mol
          :  Hamiltonian                  GFN2-xTB          :
 * total energy  :   -21.4675050 Eh     change       -0.9193712E-10 Eh
 * total energy  :   -21.4704920 Eh     change       -0.2987007E-02 Eh
 * total energy  :   -21.4707506 Eh     change       -0.2585725E-03 Eh
 * total energy  :   -21.4707869 Eh     change       -0.3633775E-04 Eh
 * total energy  :   -21.4708081 Eh     change       -0.2114102E-04 Eh
 * total energy  :   -21.4708199 Eh     change       -0.1181021E-04 Eh
 * total energy  :   -21.4708213 Eh     change       -0.1435776E-05 Eh
   *** GEOMETRY OPTIMIZATION CONVERGED AFTER 7 ITERATIONS ***

 final structure:
================
11
 xtb: 6.7.1 (edcfbbe)
C           -5.33258247182169       -3.64685766027568        0.54024835499118
C           -6.33519482845721       -4.21258506135377        1.18908263773562
O           -8.27702832284972       -5.54145137673451        1.24335774256800
H           -5.22855660509367       -3.81535637401908       -0.51978770424821
O           -7.24398297695530       -5.31551799842337       -0.71338889950436
C           -7.35726045246311       -5.08759611986600        0.50876635324785
H           -4.60237758926323       -3.02266688931251        1.02683965897613
H           -6.49750770443387       -4.08863129936342        2.25134454057296
O           -9.87783593187895       -7.10437662329545       -0.31241601481342
H           -9.35979986944174       -6.55860644554621        0.32317005683634
H           -9.40799412127002       -6.99892610558218       -1.14715889508976

          :  Hamiltonian                  GFN2-xTB          :
         :: gradient norm              0.000697016245 Eh/a0 ::
         :: HOMO-LUMO gap              3.438684031711 eV    ::
         :: SCC energy               -21.674333763426 Eh    ::
         :: -> dispersion             -0.005752001761 Eh    ::
         :: -> Gsolv                  -0.111038760540 Eh    ::
         :: repulsion energy           0.203512458991 Eh    ::

    * Orbital Energies and Occupations

         #    Occupation            Energy/Eh            Energy/eV
      -------------------------------------------------------------
         1        2.0000           -0.6717531             -18.2793
       ...           ...                  ...                  ...
         6        2.0000           -0.5423209             -14.7573
         7        2.0000           -0.5325660             -14.4919
         8        2.0000           -0.5184070             -14.1066
         9        2.0000           -0.5101152             -13.8809
        10        2.0000           -0.5010326             -13.6338
        11        2.0000           -0.4823497             -13.1254
        12        2.0000           -0.4733948             -12.8817
        13        2.0000           -0.4430881             -12.0570
        14        2.0000           -0.4186419             -11.3918
        15        2.0000           -0.4141268             -11.2690
        16        2.0000           -0.4000411             -10.8857
        17        2.0000           -0.3834075             -10.4330
        18        2.0000           -0.3657175              -9.9517 (HOMO)
        19                         -0.2393483              -6.5130 (LUMO)
        20                         -0.1284606              -3.4956
        21                          0.1177044               3.2029
        22                          0.1393461               3.7918
        23                          0.1506025               4.0981
        24                          0.1960052               5.3336
        25                          0.2829134               7.6985
        26                          0.3935089              10.7079
        27                          0.4433739              12.0648
        28                          0.5042041              13.7201
        29                          0.7022840              19.1101
      -------------------------------------------------------------
                  HL-Gap            0.1263691 Eh            3.4387 eV

     #   Z          covCN         q      C6AA      α(0)
     1   6 C        2.837    -0.081    30.009     8.977
     2   6 C        2.885    -0.079    29.962     8.974
     3   8 O        0.857    -0.659    27.618     7.046
     4   1 H        0.926     0.052     2.300     2.371
     5   8 O        0.856    -0.641    27.144     6.985
     6   6 C        2.692     0.361    20.882     7.479
     7   1 H        0.926     0.063     2.164     2.300
     8   1 H        0.925     0.032     2.555     2.499
     9   8 O        1.607    -0.684    27.294     7.051
    10   1 H        0.802     0.308     0.697     1.311
    11   1 H        0.805     0.328     0.643     1.260

Wiberg/Mayer (AO) data.
largest (>0.10) Wiberg bond orders for each atom

     #   Z sym  total        # sym  WBO       # sym  WBO       # sym  WBO
 ---------------------------------------------------------------------------
     1   6 C    3.988 --     2 C    1.961     7 H    0.973     4 H    0.973
     2   6 C    3.986 --     1 C    1.961     6 C    0.971     8 H    0.969
     3   8 O    1.810 --     6 C    1.434     5 O    0.212
     4   1 H    0.997 --     1 C    0.973
     5   8 O    1.799 --     6 C    1.496     3 O    0.212
     6   6 C    3.930 --     5 O    1.496     3 O    1.434     2 C    0.971
     7   1 H    0.996 --     1 C    0.973
     8   1 H    0.999 --     2 C    0.969
     9   8 O    1.765 --    11 H    0.891    10 H    0.843
    10   1 H    0.905 --     9 O    0.843
    11   1 H    0.893 --     9 O    0.891
 ---------------------------------------------------------------------------

molecular dipole:
                 x           y           z       tot (Debye)
 q only:       15.861      11.103      -0.507
   full:       16.121      11.302      -0.443      50.054

 projected vibrational frequencies (cm⁻¹)
eigval :       -0.00     0.00     0.00     0.00     0.00     0.00
eigval :       32.34    40.59    74.13   188.36   229.06   260.64
eigval :      411.50   442.42   534.74   628.28   731.06   784.02
eigval :      865.36   893.21  1025.24  1034.30  1236.95  1332.02
eigval :     1381.32  1527.83  1613.88  1689.01  3054.52  3086.90
eigval :     3105.82  3116.23  3593.02

   temp. (K)  partition function   enthalpy   heat capacity  entropy
                                   cal/mol     cal/K/mol   cal/K/mol   J/K/mol
 298.15  VIB   749.                 3389.787     18.375     21.888
         ROT  0.179E+06              888.752      2.981     27.018
         INT  0.134E+09             4278.540     21.356     48.905
         TR   0.813E+27             1481.254      4.968     39.355
         TOT                        5759.7938    26.3238    88.2605   369.2819

       T/K    H(0)-H(T)+PV         H(T)/Eh          T*S/Eh         G(T)/Eh
   ------------------------------------------------------------------------
    298.15    0.917882E-02    0.841596E-01    0.419354E-01    0.422242E-01
   ------------------------------------------------------------------------

         :::::::::::::::::::::::::::::::::::::::::::::::::::::
         ::                  THERMODYNAMIC                  ::
         :::::::::::::::::::::::::::::::::::::::::::::::::::::
         :: total free energy         -21.428597145619 Eh   ::
         ::.................................................::
         :: total energy              -21.470821303929 Eh   ::
         :: zero point energy           0.074980750339 Eh   ::
         :: G(RRHO) w/o ZPVE           -0.032756592028 Eh   ::
         :: G(RRHO) contrib.            0.042224158311 Eh   ::
         :::::::::::::::::::::::::::::::::::::::::::::::::::::

           -------------------------------------------------
          | TOTAL ENERGY              -21.470821303929 Eh   |
          | TOTAL ENTHALPY            -21.386661737955 Eh   |
          | TOTAL FREE ENERGY         -21.428597145619 Eh   |
          | GRADIENT NORM               0.000696763450 Eh/α |
          | HOMO-LUMO GAP               3.438679015871 eV   |
           -------------------------------------------------

 * finished run on 2025/10/18 at 03:40:39.322
normal termination of xtb
