   * xtb version 6.7.1 (edcfbbe) compiled by 'albert@albert-system' on 2024-07-22

   ID    Z sym.   atoms
    1    6 C      1, 2, 6
    2    8 O      3, 5
    3    1 H      4, 7, 8

          program call               : xtb tb_lite_results_shiftn0p05_gp159_b0_rot270_solute.xyz --ohess --chrg -1
          :  Hamiltonian                  GFN2-xTB          :
 * total energy  :   -16.2687960 Eh     change       -0.2248868E-10 Eh
 * total energy  :   -16.2708547 Eh     change       -0.2058738E-02 Eh
 * total energy  :   -16.2712028 Eh     change       -0.3481386E-03 Eh
 * total energy  :   -16.2712916 Eh     change       -0.8875583E-04 Eh
 * total energy  :   -16.2712135 Eh     change        0.7808465E-04 Eh
 * total energy  :   -16.2713222 Eh     change       -0.1087388E-03 Eh
 * total energy  :   -16.2712966 Eh     change        0.2566642E-04 Eh
 * total energy  :   -16.2713230 Eh     change       -0.2647006E-04 Eh
 * total energy  :   -16.2713256 Eh     change       -0.2522713E-05 Eh
   *** GEOMETRY OPTIMIZATION CONVERGED AFTER 9 ITERATIONS ***

 final structure:
================
8
 xtb: 6.7.1 (edcfbbe)
C           -5.34214679351172       -3.65617315233876        0.55129219539739
C           -6.34719032612056       -4.22703570222343        1.18815265071324
O           -8.29960818807376       -5.54860145647712        1.23090520154126
H           -5.23297781086662       -3.81018364126946       -0.51166807138360
O           -7.24213103718489       -5.31291732025175       -0.73113996707681
C           -7.40144346381492       -5.12107067383719        0.48449655922158
H           -4.59983093585174       -3.02312679545989        1.02886149113904
H           -6.49698869685248       -4.09442143073979        2.25568096717771

          :  Hamiltonian                  GFN2-xTB          :
         :: gradient norm              0.000425445661 Eh/a0 ::
         :: HOMO-LUMO gap              2.854867434012 eV    ::
         :: SCC energy               -16.444761134763 Eh    ::
         :: -> dispersion             -0.004446138072 Eh    ::
         :: repulsion energy           0.173435571260 Eh    ::

    * Orbital Energies and Occupations

         #    Occupation            Energy/Eh            Energy/eV
      -------------------------------------------------------------
         1        2.0000           -0.4640463             -12.6273
         2        2.0000           -0.4509324             -12.2705
         3        2.0000           -0.4441073             -12.0848
         4        2.0000           -0.3943420             -10.7306
         5        2.0000           -0.3563218              -9.6960
         6        2.0000           -0.3363662              -9.1530
         7        2.0000           -0.3138307              -8.5398
         8        2.0000           -0.3078469              -8.3769
         9        2.0000           -0.2860688              -7.7843
        10        2.0000           -0.2710582              -7.3759
        11        2.0000           -0.2416840              -6.5766
        12        2.0000           -0.1897461              -5.1633
        13        2.0000           -0.1750044              -4.7621
        14        2.0000           -0.1609524              -4.3797 (HOMO)
        15                         -0.0560380              -1.5249 (LUMO)
        16                          0.0669716               1.8224
        17                          0.2674191               7.2768
        18                          0.3087846               8.4025
        19                          0.3472834               9.4501
        20                          0.5543026              15.0833
        21                          0.6241447              16.9838
        22                          0.7168630              19.5068
        23                          0.9231687              25.1207
      -------------------------------------------------------------
                  HL-Gap            0.1049145 Eh            2.8549 eV

     #   Z          covCN         q      C6AA      α(0)
     1   6 C        2.834    -0.088    30.198     9.005
     2   6 C        2.880    -0.073    29.828     8.953
     3   8 O        0.857    -0.602    26.169     6.859
     4   1 H        0.926     0.025     2.655     2.548
     5   8 O        0.856    -0.597    26.034     6.841
     6   6 C        2.686     0.364    20.821     7.467
     7   1 H        0.925    -0.024     3.519     2.934
     8   1 H        0.925    -0.005     3.147     2.774

Wiberg/Mayer (AO) data.
largest (>0.10) Wiberg bond orders for each atom

     #   Z sym  total        # sym  WBO       # sym  WBO       # sym  WBO
 ---------------------------------------------------------------------------
     1   6 C    3.988 --     2 C    1.977     4 H    0.974     7 H    0.974
     2   6 C    3.957 --     1 C    1.977     8 H    0.971     6 C    0.902
     3   8 O    1.836 --     6 C    1.507     5 O    0.239
     4   1 H    0.999 --     1 C    0.974
     5   8 O    1.843 --     6 C    1.516     3 O    0.239
     6   6 C    3.947 --     5 O    1.516     3 O    1.507     2 C    0.902
     7   1 H    0.999 --     1 C    0.974
     8   1 H    1.000 --     2 C    0.971
 ---------------------------------------------------------------------------

molecular dipole:
                 x           y           z       tot (Debye)
 q only:       14.306       9.968      -0.593
   full:       14.540      10.169      -0.441      45.113

 projected vibrational frequencies (cm⁻¹)
eigval :       -0.00    -0.00    -0.00     0.00     0.00     0.00
eigval :       39.57   233.48   409.39   504.14   615.58   776.26
eigval :      803.11   878.26  1012.12  1032.29  1239.58  1293.96
eigval :     1400.87  1684.83  1745.76  2965.42  3003.31  3081.80

   temp. (K)  partition function   enthalpy   heat capacity  entropy
                                   cal/mol     cal/K/mol   cal/K/mol   J/K/mol
 298.15  VIB   12.4                 1485.041      9.831      8.896
         ROT  0.687E+05              888.752      2.981     25.113
         INT  0.849E+06             2373.794     12.812     34.010
         TR   0.579E+27             1481.254      4.968     38.682
         TOT                        3855.0476    17.7799    72.6916   304.1417

       T/K    H(0)-H(T)+PV         H(T)/Eh          T*S/Eh         G(T)/Eh
   ------------------------------------------------------------------------
    298.15    0.614341E-02    0.579027E-01    0.345381E-01    0.233646E-01
   ------------------------------------------------------------------------

         :::::::::::::::::::::::::::::::::::::::::::::::::::::
         ::                  THERMODYNAMIC                  ::
         :::::::::::::::::::::::::::::::::::::::::::::::::::::
         :: total free energy         -16.247960970053 Eh   ::
         ::.................................................::
         :: total energy              -16.271325563511 Eh   ::
         :: zero point energy           0.051759316653 Eh   ::
         :: G(RRHO) w/o ZPVE           -0.028394723195 Eh   ::
         :: G(RRHO) contrib.            0.023364593458 Eh   ::
         :::::::::::::::::::::::::::::::::::::::::::::::::::::

           -------------------------------------------------
          | TOTAL ENERGY              -16.271325563511 Eh   |
          | TOTAL ENTHALPY            -16.213422837499 Eh   |
          | TOTAL FREE ENERGY         -16.247960970053 Eh   |
          | GRADIENT NORM               0.000425343949 Eh/α |
          | HOMO-LUMO GAP               2.854868606476 eV   |
           -------------------------------------------------

 * finished run on 2025/10/18 at 03:40:37.930
normal termination of xtb
