   * xtb version 6.7.1 (edcfbbe) compiled by 'albert@albert-system' on 2024-07-22

   ID    Z sym.   atoms
    1    6 C      1, 2, 6
    2    8 O      3, 5, 9
    3    1 H      4, 7, 8, 10, 11

          program call               : xtb tb_lite_results_shiftn0p05_gp159_b0_rot270_complex.xyz --ohess --chrg -1 --alpb water
      * Solvation model:               ALPB
        Solvent                        water
        Solvent mass                       1.8000E+01 g/mol
          :  Hamiltonian                  GFN2-xTB          :
 * total energy  :   -21.4680922 Eh     change       -0.6867040E-10 Eh
 * total energy  :   -21.4704861 Eh     change       -0.2393931E-02 Eh
 * total energy  :   -21.4707296 Eh     change       -0.2434998E-03 Eh
 * total energy  :   -21.4707717 Eh     change       -0.4210486E-04 Eh
 * total energy  :   -21.4708025 Eh     change       -0.3083913E-04 Eh
 * total energy  :   -21.4708145 Eh     change       -0.1199343E-04 Eh
 * total energy  :   -21.4708161 Eh     change       -0.1524912E-05 Eh
   *** GEOMETRY OPTIMIZATION CONVERGED AFTER 7 ITERATIONS ***

 final structure:
================
11
 xtb: 6.7.1 (edcfbbe)
C           -5.34669065682695       -3.65674145151326        0.53905364151281
C           -6.35273938979020       -4.22698351463328        1.17859070171735
O           -8.29205529327179       -5.56012570699659        1.21414835847340
H           -5.23561234991250       -3.81997279713381       -0.52114558221354
O           -7.24874614364011       -5.31994378775652       -0.73564811497695
C           -7.36953614064656       -5.09989423509564        0.48728521907410
H           -4.61992539669503       -3.03459683498022        1.03350365436419
H           -6.52144468998638       -4.10879053248213        2.24053181403859
O           -9.89663295353881       -7.13017999131057       -0.33754649482583
H           -9.37665187634360       -6.58234595559350        0.29405463390860
H           -9.43329106403345       -7.02620222703355       -1.17597508055728

          :  Hamiltonian                  GFN2-xTB          :
         :: gradient norm              0.000760792578 Eh/a0 ::
         :: HOMO-LUMO gap              3.438381757238 eV    ::
         :: SCC energy               -21.674360667368 Eh    ::
         :: -> dispersion             -0.005744230552 Eh    ::
         :: -> Gsolv                  -0.111150072737 Eh    ::
         :: repulsion energy           0.203544608561 Eh    ::

    * Orbital Energies and Occupations

         #    Occupation            Energy/Eh            Energy/eV
      -------------------------------------------------------------
         1        2.0000           -0.6716277             -18.2759
       ...           ...                  ...                  ...
         6        2.0000           -0.5422504             -14.7554
         7        2.0000           -0.5327940             -14.4981
         8        2.0000           -0.5182937             -14.1035
         9        2.0000           -0.5099991             -13.8778
        10        2.0000           -0.5010117             -13.6332
        11        2.0000           -0.4823945             -13.1266
        12        2.0000           -0.4733319             -12.8800
        13        2.0000           -0.4430531             -12.0561
        14        2.0000           -0.4188528             -11.3976
        15        2.0000           -0.4140509             -11.2669
        16        2.0000           -0.3999251             -10.8825
        17        2.0000           -0.3833048             -10.4303
        18        2.0000           -0.3656039              -9.9486 (HOMO)
        19                         -0.2392457              -6.5102 (LUMO)
        20                         -0.1283831              -3.4935
        21                          0.1174250               3.1953
        22                          0.1389374               3.7807
        23                          0.1506242               4.0987
        24                          0.1958989               5.3307
        25                          0.2832618               7.7079
        26                          0.3936481              10.7117
        27                          0.4432766              12.0622
        28                          0.5044158              13.7259
        29                          0.7024444              19.1145
      -------------------------------------------------------------
                  HL-Gap            0.1263582 Eh            3.4384 eV

     #   Z          covCN         q      C6AA      α(0)
     1   6 C        2.837    -0.081    30.010     8.977
     2   6 C        2.885    -0.079    29.963     8.974
     3   8 O        0.857    -0.659    27.621     7.046
     4   1 H        0.926     0.052     2.301     2.372
     5   8 O        0.856    -0.641    27.153     6.986
     6   6 C        2.692     0.361    20.882     7.479
     7   1 H        0.926     0.063     2.165     2.301
     8   1 H        0.925     0.032     2.556     2.500
     9   8 O        1.607    -0.684    27.289     7.050
    10   1 H        0.802     0.308     0.697     1.311
    11   1 H        0.805     0.328     0.642     1.258

Wiberg/Mayer (AO) data.
largest (>0.10) Wiberg bond orders for each atom

     #   Z sym  total        # sym  WBO       # sym  WBO       # sym  WBO
 ---------------------------------------------------------------------------
     1   6 C    3.988 --     2 C    1.961     7 H    0.973     4 H    0.973
     2   6 C    3.986 --     1 C    1.961     6 C    0.970     8 H    0.969
     3   8 O    1.809 --     6 C    1.435     5 O    0.212
     4   1 H    0.997 --     1 C    0.973
     5   8 O    1.799 --     6 C    1.496     3 O    0.212
     6   6 C    3.930 --     5 O    1.496     3 O    1.435     2 C    0.970
     7   1 H    0.996 --     1 C    0.973
     8   1 H    0.999 --     2 C    0.969
     9   8 O    1.765 --    11 H    0.890    10 H    0.844
    10   1 H    0.905 --     9 O    0.844
    11   1 H    0.892 --     9 O    0.890
 ---------------------------------------------------------------------------

molecular dipole:
                 x           y           z       tot (Debye)
 q only:       15.872      11.123      -0.461
   full:       16.131      11.322      -0.398      50.101

 projected vibrational frequencies (cm⁻¹)
eigval :       -0.00    -0.00    -0.00     0.00     0.00     0.00
eigval :       29.72    37.98    73.98   187.08   225.96   260.06
eigval :      404.32   442.60   534.22   627.97   726.53   783.47
eigval :      864.87   893.34  1025.24  1034.23  1237.02  1331.70
eigval :     1381.28  1524.75  1614.16  1688.92  3054.23  3086.39
eigval :     3112.03  3116.05  3594.53

   temp. (K)  partition function   enthalpy   heat capacity  entropy
                                   cal/mol     cal/K/mol   cal/K/mol   J/K/mol
 298.15  VIB   879.                 3407.452     18.319     21.996
         ROT  0.180E+06              888.752      2.981     27.025
         INT  0.158E+09             4296.204     21.300     49.021
         TR   0.813E+27             1481.254      4.968     39.355
         TOT                        5777.4579    26.2680    88.3759   369.7648

       T/K    H(0)-H(T)+PV         H(T)/Eh          T*S/Eh         G(T)/Eh
   ------------------------------------------------------------------------
    298.15    0.920697E-02    0.841419E-01    0.419902E-01    0.421516E-01
   ------------------------------------------------------------------------

         :::::::::::::::::::::::::::::::::::::::::::::::::::::
         ::                  THERMODYNAMIC                  ::
         :::::::::::::::::::::::::::::::::::::::::::::::::::::
         :: total free energy         -21.428664448934 Eh   ::
         ::.................................................::
         :: total energy              -21.470816058023 Eh   ::
         :: zero point energy           0.074934884997 Eh   ::
         :: G(RRHO) w/o ZPVE           -0.032783275908 Eh   ::
         :: G(RRHO) contrib.            0.042151609089 Eh   ::
         :::::::::::::::::::::::::::::::::::::::::::::::::::::

           -------------------------------------------------
          | TOTAL ENERGY              -21.470816058023 Eh   |
          | TOTAL ENTHALPY            -21.386674207840 Eh   |
          | TOTAL FREE ENERGY         -21.428664448934 Eh   |
          | GRADIENT NORM               0.000760712265 Eh/α |
          | HOMO-LUMO GAP               3.438382698966 eV   |
           -------------------------------------------------

 * finished run on 2025/10/18 at 03:40:37.640
normal termination of xtb
