   * xtb version 6.7.1 (edcfbbe) compiled by 'albert@albert-system' on 2024-07-22

   ID    Z sym.   atoms
    1    6 C      1, 2, 6
    2    8 O      3, 5, 9
    3    1 H      4, 7, 8, 10, 11

          program call               : xtb tb_lite_results_shiftn0p1_gp314_b0_rot90_complex.xyz --ohess --chrg -1 --alpb water
      * Solvation model:               ALPB
        Solvent                        water
        Solvent mass                       1.8000E+01 g/mol
          :  Hamiltonian                  GFN2-xTB          :
 * total energy  :   -21.4676176 Eh     change       -0.4341416E-11 Eh
 * total energy  :   -21.4702988 Eh     change       -0.2681184E-02 Eh
 * total energy  :   -21.4704609 Eh     change       -0.1620949E-03 Eh
 * total energy  :   -21.4705350 Eh     change       -0.7410756E-04 Eh
 * total energy  :   -21.4706277 Eh     change       -0.9263001E-04 Eh
 * total energy  :   -21.4706569 Eh     change       -0.2922045E-04 Eh
 * total energy  :   -21.4706745 Eh     change       -0.1759989E-04 Eh
 * total energy  :   -21.4706832 Eh     change       -0.8731146E-05 Eh
 * total energy  :   -21.4706901 Eh     change       -0.6859727E-05 Eh
 * total energy  :   -21.4706997 Eh     change       -0.9595948E-05 Eh
 * total energy  :   -21.4707107 Eh     change       -0.1097973E-04 Eh
 * total energy  :   -21.4707174 Eh     change       -0.6752053E-05 Eh
 * total energy  :   -21.4707231 Eh     change       -0.5664102E-05 Eh
 * total energy  :   -21.4707279 Eh     change       -0.4785670E-05 Eh
   *** GEOMETRY OPTIMIZATION CONVERGED AFTER 14 ITERATIONS ***

 final structure:
================
11
 xtb: 6.7.1 (edcfbbe)
C           -5.32941424902096       -3.69857698740954        0.55334519735965
C           -6.38869557876449       -4.17967002744384        1.18022493347083
O           -8.28959100658131       -5.57436874143569        1.23812907548105
H           -5.16013544396723       -3.96535820264629       -0.47786501251541
O           -7.22381053874357       -5.36592326474286       -0.70217740231630
C           -7.37594090517994       -5.10856862258599        0.52057023321104
H           -4.61886655088972       -3.04365548412969        1.02884804456708
H           -6.61739245814210       -3.95697649893776        2.21403895180999
O           -9.11474169036685       -7.23356354676278       -1.32077600162406
H           -8.40468636355329       -6.56133876056190       -1.20733308168833
H           -9.52746243212028       -7.28133935777362       -0.45147630880894

          :  Hamiltonian                  GFN2-xTB          :
         :: gradient norm              0.000862573278 Eh/a0 ::
         :: HOMO-LUMO gap              3.438626880366 eV    ::
         :: SCC energy               -21.674124640270 Eh    ::
         :: -> dispersion             -0.005780655139 Eh    ::
         :: -> Gsolv                  -0.110692369158 Eh    ::
         :: repulsion energy           0.203396784735 Eh    ::

    * Orbital Energies and Occupations

         #    Occupation            Energy/Eh            Energy/eV
      -------------------------------------------------------------
         1        2.0000           -0.6715872             -18.2748
       ...           ...                  ...                  ...
         6        2.0000           -0.5435283             -14.7902
         7        2.0000           -0.5326201             -14.4933
         8        2.0000           -0.5169022             -14.0656
         9        2.0000           -0.5099832             -13.8773
        10        2.0000           -0.4994901             -13.5918
        11        2.0000           -0.4876024             -13.2683
        12        2.0000           -0.4696009             -12.7785
        13        2.0000           -0.4436719             -12.0729
        14        2.0000           -0.4186352             -11.3916
        15        2.0000           -0.4140949             -11.2681
        16        2.0000           -0.3999470             -10.8831
        17        2.0000           -0.3833374             -10.4311
        18        2.0000           -0.3657086              -9.9514 (HOMO)
        19                         -0.2393416              -6.5128 (LUMO)
        20                         -0.1287063              -3.5023
        21                          0.1195921               3.2543
        22                          0.1381012               3.7579
        23                          0.1495536               4.0696
        24                          0.1954707               5.3190
        25                          0.2849032               7.7526
        26                          0.3955464              10.7634
        27                          0.4420288              12.0282
        28                          0.5014510              13.6452
        29                          0.7009354              19.0734
      -------------------------------------------------------------
                  HL-Gap            0.1263670 Eh            3.4386 eV

     #   Z          covCN         q      C6AA      α(0)
     1   6 C        2.837    -0.080    29.993     8.975
     2   6 C        2.885    -0.079    29.967     8.975
     3   8 O        0.857    -0.651    27.405     7.019
     4   1 H        0.926     0.051     2.313     2.378
     5   8 O        0.856    -0.650    27.371     7.014
     6   6 C        2.692     0.360    20.885     7.479
     7   1 H        0.926     0.063     2.169     2.303
     8   1 H        0.925     0.033     2.541     2.493
     9   8 O        1.607    -0.683    27.251     7.045
    10   1 H        0.802     0.309     0.694     1.309
    11   1 H        0.805     0.326     0.648     1.264

Wiberg/Mayer (AO) data.
largest (>0.10) Wiberg bond orders for each atom

     #   Z sym  total        # sym  WBO       # sym  WBO       # sym  WBO
 ---------------------------------------------------------------------------
     1   6 C    3.988 --     2 C    1.961     7 H    0.973     4 H    0.973
     2   6 C    3.986 --     1 C    1.961     6 C    0.971     8 H    0.969
     3   8 O    1.789 --     6 C    1.485     5 O    0.212
     4   1 H    0.997 --     1 C    0.973
     5   8 O    1.818 --     6 C    1.445     3 O    0.212
     6   6 C    3.930 --     3 O    1.485     5 O    1.445     2 C    0.971
     7   1 H    0.996 --     1 C    0.973
     8   1 H    0.999 --     2 C    0.969
     9   8 O    1.766 --    11 H    0.891    10 H    0.844
    10   1 H    0.904 --     9 O    0.844
    11   1 H    0.894 --     9 O    0.891
 ---------------------------------------------------------------------------

molecular dipole:
                 x           y           z       tot (Debye)
 q only:       15.320      11.170       0.369
   full:       15.458      11.373       0.632      48.804

 projected vibrational frequencies (cm⁻¹)
eigval :       -0.00    -0.00     0.00     0.00     0.00     0.00
eigval :       37.37    43.30    67.73   170.54   202.62   287.99
eigval :      391.08   439.99   521.54   634.86   719.35   783.73
eigval :      865.84   893.81  1025.36  1033.46  1239.19  1331.98
eigval :     1382.77  1526.97  1610.52  1688.44  3051.67  3085.45
eigval :     3114.08  3119.53  3594.99

   temp. (K)  partition function   enthalpy   heat capacity  entropy
                                   cal/mol     cal/K/mol   cal/K/mol   J/K/mol
 298.15  VIB   744.                 3428.090     18.561     22.316
         ROT  0.190E+06              888.752      2.981     27.136
         INT  0.141E+09             4316.842     21.542     49.452
         TR   0.813E+27             1481.254      4.968     39.355
         TOT                        5798.0963    26.5100    88.8072   371.5692

       T/K    H(0)-H(T)+PV         H(T)/Eh          T*S/Eh         G(T)/Eh
   ------------------------------------------------------------------------
    298.15    0.923985E-02    0.841099E-01    0.421952E-01    0.419148E-01
   ------------------------------------------------------------------------

         :::::::::::::::::::::::::::::::::::::::::::::::::::::
         ::                  THERMODYNAMIC                  ::
         :::::::::::::::::::::::::::::::::::::::::::::::::::::
         :: total free energy         -21.428813088143 Eh   ::
         ::.................................................::
         :: total energy              -21.470727852638 Eh   ::
         :: zero point energy           0.074870066112 Eh   ::
         :: G(RRHO) w/o ZPVE           -0.032955301617 Eh   ::
         :: G(RRHO) contrib.            0.041914764495 Eh   ::
         :::::::::::::::::::::::::::::::::::::::::::::::::::::

           -------------------------------------------------
          | TOTAL ENERGY              -21.470727852638 Eh   |
          | TOTAL ENTHALPY            -21.386617931960 Eh   |
          | TOTAL FREE ENERGY         -21.428813088143 Eh   |
          | GRADIENT NORM               0.000862445031 Eh/α |
          | HOMO-LUMO GAP               3.438622213010 eV   |
           -------------------------------------------------

 * finished run on 2025/10/18 at 03:40:41.274
normal termination of xtb
