   * xtb version 6.7.1 (edcfbbe) compiled by 'albert@albert-system' on 2024-07-22

   ID    Z sym.   atoms
    1    6 C      1, 2, 6
    2    8 O      3, 5, 9
    3    1 H      4, 7, 8, 10, 11

          program call               : xtb tb_lite_results_original_gp159_b0_rot270_complex.xyz --ohess --chrg -1 --alpb water
      * Solvation model:               ALPB
        Solvent                        water
        Solvent mass                       1.8000E+01 g/mol
          :  Hamiltonian                  GFN2-xTB          :
 * total energy  :   -21.4680964 Eh     change       -0.4483525E-10 Eh
 * total energy  :   -21.4703931 Eh     change       -0.2296691E-02 Eh
 * total energy  :   -21.4706887 Eh     change       -0.2955794E-03 Eh
 * total energy  :   -21.4707507 Eh     change       -0.6194967E-04 Eh
 * total energy  :   -21.4707865 Eh     change       -0.3580967E-04 Eh
 * total energy  :   -21.4708094 Eh     change       -0.2296233E-04 Eh
 * total energy  :   -21.4708117 Eh     change       -0.2237034E-05 Eh
   *** GEOMETRY OPTIMIZATION CONVERGED AFTER 7 ITERATIONS ***

 final structure:
================
11
 xtb: 6.7.1 (edcfbbe)
C           -5.35326429569926       -3.66152998875311        0.53946665133727
C           -6.36129093952225       -4.23443219560437        1.17354415512908
O           -8.29926920867124       -5.56987693603983        1.19682074248538
H           -5.23813958244673       -3.82195661978233       -0.52074220969026
O           -7.24882399365462       -5.32156805128345       -0.74809571886249
C           -7.37452438961597       -5.10600074244182        0.47513908377458
H           -4.62845458358610       -3.04067774998051        1.03842455000606
H           -6.53439718298120       -4.12007427928371        2.23515248266145
O           -9.90785369125275       -7.14234269232952       -0.34912302190401
H           -9.38546240156241       -6.59337435265377        0.27951672685637
H           -9.44844822607126       -7.04054596675510       -1.18985323165645

          :  Hamiltonian                  GFN2-xTB          :
         :: gradient norm              0.000764808249 Eh/a0 ::
         :: HOMO-LUMO gap              3.438309192481 eV    ::
         :: SCC energy               -21.674355334967 Eh    ::
         :: -> dispersion             -0.005739575943 Eh    ::
         :: -> Gsolv                  -0.111215793500 Eh    ::
         :: repulsion energy           0.203543666866 Eh    ::

    * Orbital Energies and Occupations

         #    Occupation            Energy/Eh            Energy/eV
      -------------------------------------------------------------
         1        2.0000           -0.6715770             -18.2745
       ...           ...                  ...                  ...
         6        2.0000           -0.5422321             -14.7549
         7        2.0000           -0.5328764             -14.5003
         8        2.0000           -0.5182472             -14.1022
         9        2.0000           -0.5099556             -13.8766
        10        2.0000           -0.5010118             -13.6332
        11        2.0000           -0.4823684             -13.1259
        12        2.0000           -0.4733016             -12.8792
        13        2.0000           -0.4430529             -12.0561
        14        2.0000           -0.4189074             -11.3991
        15        2.0000           -0.4140223             -11.2661
        16        2.0000           -0.3998847             -10.8814
        17        2.0000           -0.3832484             -10.4287
        18        2.0000           -0.3655676              -9.9476 (HOMO)
        19                         -0.2392121              -6.5093 (LUMO)
        20                         -0.1283701              -3.4931
        21                          0.1172462               3.1904
        22                          0.1388055               3.7771
        23                          0.1506632               4.0998
        24                          0.1958874               5.3304
        25                          0.2834409               7.7128
        26                          0.3937541              10.7146
        27                          0.4432562              12.0616
        28                          0.5044615              13.7271
        29                          0.7025034              19.1161
      -------------------------------------------------------------
                  HL-Gap            0.1263555 Eh            3.4383 eV

     #   Z          covCN         q      C6AA      α(0)
     1   6 C        2.837    -0.081    30.010     8.977
     2   6 C        2.885    -0.079    29.964     8.974
     3   8 O        0.857    -0.659    27.621     7.046
     4   1 H        0.926     0.052     2.301     2.372
     5   8 O        0.856    -0.641    27.155     6.987
     6   6 C        2.692     0.361    20.882     7.479
     7   1 H        0.926     0.063     2.166     2.301
     8   1 H        0.925     0.032     2.556     2.500
     9   8 O        1.607    -0.684    27.291     7.051
    10   1 H        0.802     0.308     0.697     1.311
    11   1 H        0.805     0.329     0.641     1.257

Wiberg/Mayer (AO) data.
largest (>0.10) Wiberg bond orders for each atom

     #   Z sym  total        # sym  WBO       # sym  WBO       # sym  WBO
 ---------------------------------------------------------------------------
     1   6 C    3.988 --     2 C    1.961     7 H    0.973     4 H    0.973
     2   6 C    3.986 --     1 C    1.961     6 C    0.970     8 H    0.969
     3   8 O    1.809 --     6 C    1.435     5 O    0.212
     4   1 H    0.997 --     1 C    0.973
     5   8 O    1.799 --     6 C    1.496     3 O    0.212
     6   6 C    3.930 --     5 O    1.496     3 O    1.435     2 C    0.970
     7   1 H    0.996 --     1 C    0.973
     8   1 H    0.999 --     2 C    0.969
     9   8 O    1.765 --    11 H    0.890    10 H    0.844
    10   1 H    0.905 --     9 O    0.844
    11   1 H    0.892 --     9 O    0.890
 ---------------------------------------------------------------------------

molecular dipole:
                 x           y           z       tot (Debye)
 q only:       15.877      11.132      -0.434
   full:       16.135      11.331      -0.371      50.123

 projected vibrational frequencies (cm⁻¹)
eigval :       -0.00    -0.00    -0.00    -0.00     0.00     0.00
eigval :       28.42    36.69    72.32   187.02   214.33   260.14
eigval :      403.64   442.74   534.21   627.84   725.07   783.38
eigval :      864.69   893.18  1024.99  1033.77  1236.55  1331.59
eigval :     1381.08  1524.19  1614.16  1688.72  3054.52  3086.09
eigval :     3111.83  3115.81  3596.00

   temp. (K)  partition function   enthalpy   heat capacity  entropy
                                   cal/mol     cal/K/mol   cal/K/mol   J/K/mol
 298.15  VIB   994.                 3424.863     18.289     22.147
         ROT  0.180E+06              888.752      2.981     27.029
         INT  0.179E+09             4313.616     21.270     49.176
         TR   0.813E+27             1481.254      4.968     39.355
         TOT                        5794.8695    26.2380    88.5308   370.4127

       T/K    H(0)-H(T)+PV         H(T)/Eh          T*S/Eh         G(T)/Eh
   ------------------------------------------------------------------------
    298.15    0.923471E-02    0.841249E-01    0.420638E-01    0.420610E-01
   ------------------------------------------------------------------------

         :::::::::::::::::::::::::::::::::::::::::::::::::::::
         ::                  THERMODYNAMIC                  ::
         :::::::::::::::::::::::::::::::::::::::::::::::::::::
         :: total free energy         -21.428750630712 Eh   ::
         ::.................................................::
         :: total energy              -21.470811667233 Eh   ::
         :: zero point energy           0.074890143711 Eh   ::
         :: G(RRHO) w/o ZPVE           -0.032829107190 Eh   ::
         :: G(RRHO) contrib.            0.042061036521 Eh   ::
         :::::::::::::::::::::::::::::::::::::::::::::::::::::

           -------------------------------------------------
          | TOTAL ENERGY              -21.470811667233 Eh   |
          | TOTAL ENTHALPY            -21.386686811163 Eh   |
          | TOTAL FREE ENERGY         -21.428750630712 Eh   |
          | GRADIENT NORM               0.000764735328 Eh/α |
          | HOMO-LUMO GAP               3.438306869096 eV   |
           -------------------------------------------------

 * finished run on 2025/10/18 at 03:40:44.296
normal termination of xtb
