   * xtb version 6.7.1 (edcfbbe) compiled by 'albert@albert-system' on 2024-07-22

   ID    Z sym.   atoms
    1    6 C      1-3, 6
    2    8 O      4, 5
    3    1 H      7-15

          program call               : xtb xyz.xyz --alpb water --charge -1 --ohess
      * Solvation model:               ALPB
        Solvent                        water
        Solvent mass                       1.8000E+01 g/mol
          :  Hamiltonian                  GFN2-xTB          :
 * total energy  :   -21.5334802 Eh     change       -0.2880896E-10 Eh
 * total energy  :   -21.5400718 Eh     change       -0.6591621E-02 Eh
 * total energy  :   -21.5406690 Eh     change       -0.5971774E-03 Eh
 * total energy  :   -21.5407351 Eh     change       -0.6607711E-04 Eh
 * total energy  :   -21.5407936 Eh     change       -0.5855139E-04 Eh
 * total energy  :   -21.5408091 Eh     change       -0.1543041E-04 Eh
 * total energy  :   -21.5408255 Eh     change       -0.1642027E-04 Eh
 * total energy  :   -21.5408337 Eh     change       -0.8206358E-05 Eh
 * total energy  :   -21.5408379 Eh     change       -0.4155734E-05 Eh
   *** GEOMETRY OPTIMIZATION CONVERGED AFTER 9 ITERATIONS ***

 final structure:
================
15
 xtb: 6.7.1 (edcfbbe)
C           -4.46858211666251       -3.76297779755840       -3.18988232376716
C           -3.46548144335212       -2.74826938058511       -2.66804254592250
C           -4.08028953471643       -1.74556618387981       -1.64874493537927
O           -3.21994777050971       -0.88126421788121       -1.12201389884957
O           -5.38403998548263       -3.13777193714999       -4.06434447185286
C           -6.38971470246460       -4.01932738039652       -4.52288178167637
H           -5.94599692552657       -4.86258833323484       -5.06407127168210
H           -6.98236332152965       -4.40176135607841       -3.68434792624923
H           -7.01965133598429       -3.43557579392522       -5.18875773031496
H           -3.94603873017373       -4.56917792778425       -3.73131348543568
H           -5.01121564209360       -4.20978557215530       -2.34099022117844
H           -2.64479454427573       -3.26398489886307       -2.16644131050980
H           -3.05537454551386       -2.16869327871517       -3.49616154293127
H           -4.94075095378682       -1.22987017459670       -2.18283886034363
H           -4.59410344792774       -2.38080676719598       -0.84690469390716

          :  Hamiltonian                  GFN2-xTB          :
         :: gradient norm              0.000698759805 Eh/a0 ::
         :: HOMO-LUMO gap              8.950605847518 eV    ::
         :: SCC energy               -21.731116242429 Eh    ::
         :: -> dispersion             -0.008750111487 Eh    ::
         :: -> Gsolv                  -0.127002060553 Eh    ::
         :: repulsion energy           0.190278387154 Eh    ::

    * Orbital Energies and Occupations

         #    Occupation            Energy/Eh            Energy/eV
      -------------------------------------------------------------
         1        2.0000           -0.7027534             -19.1229
       ...           ...                  ...                  ...
         7        2.0000           -0.5494479             -14.9512
         8        2.0000           -0.5382705             -14.6471
         9        2.0000           -0.5242262             -14.2649
        10        2.0000           -0.4931071             -13.4181
        11        2.0000           -0.4830811             -13.1453
        12        2.0000           -0.4668509             -12.7037
        13        2.0000           -0.4582840             -12.4705
        14        2.0000           -0.4443959             -12.0926
        15        2.0000           -0.4350203             -11.8375
        16        2.0000           -0.4217031             -11.4751
        17        2.0000           -0.4030215             -10.9668
        18        2.0000           -0.3049637              -8.2985
        19        2.0000           -0.3035574              -8.2602 (HOMO)
        20                          0.0253714               0.6904 (LUMO)
        21                          0.0902537               2.4559
        22                          0.1114281               3.0321
        23                          0.1155847               3.1452
        24                          0.1260686               3.4305
        25                          0.1411841               3.8418
        26                          0.1585395               4.3141
        27                          0.1723376               4.6895
        28                          0.1913371               5.2065
        29                          0.1994121               5.4263
        30                          0.2329468               6.3388
       ...                                ...                  ...
        33                          0.3471596               9.4467
      -------------------------------------------------------------
                  HL-Gap            0.3289288 Eh            8.9506 eV

     #   Z          covCN         q      C6AA      α(0)
     1   6 C        3.703     0.093    19.190     6.264
     2   6 C        3.797    -0.078    21.988     6.677
     3   6 C        3.657     0.190    17.847     6.064
     4   8 O        0.855    -0.874    33.936     7.810
     5   8 O        1.700    -0.366    20.186     6.066
     6   6 C        3.652     0.031    20.356     6.479
     7   1 H        0.924     0.048     2.346     2.395
     8   1 H        0.924     0.039     2.462     2.454
     9   1 H        0.925     0.081     1.967     2.193
    10   1 H        0.923     0.022     2.704     2.572
    11   1 H        0.923     0.008     2.922     2.673
    12   1 H        0.924     0.023     2.682     2.561
    13   1 H        0.924     0.027     2.629     2.536
    14   1 H        0.916    -0.115     6.139     3.875
    15   1 H        0.913    -0.129     6.687     4.045

Wiberg/Mayer (AO) data.
largest (>0.10) Wiberg bond orders for each atom

     #   Z sym  total        # sym  WBO       # sym  WBO       # sym  WBO
 ---------------------------------------------------------------------------
     1   6 C    3.955 --     2 C    1.006     5 O    0.980    11 H    0.966
                            10 H    0.966
     2   6 C    3.991 --     1 C    1.006    13 H    0.979    12 H    0.978
                             3 C    0.955
     3   6 C    3.979 --     4 O    1.156     2 C    0.955    14 H    0.931
                            15 H    0.923
     4   8 O    1.314 --     3 C    1.156
     5   8 O    2.041 --     1 C    0.980     6 C    0.979
     6   6 C    3.934 --     5 O    0.979     9 H    0.978     8 H    0.978
                             7 H    0.977
     7   1 H    0.998 --     6 C    0.977
     8   1 H    0.998 --     6 C    0.978
     9   1 H    0.993 --     6 C    0.978
    10   1 H    1.000 --     1 C    0.966
    11   1 H    1.000 --     1 C    0.966
    12   1 H    0.999 --     2 C    0.978
    13   1 H    0.999 --     2 C    0.979
    14   1 H    0.987 --     3 C    0.931
    15   1 H    0.983 --     3 C    0.923
 ---------------------------------------------------------------------------

molecular dipole:
                 x           y           z       tot (Debye)
 q only:        6.483       1.554       2.332
   full:        6.303       1.239       2.313      17.353

 projected vibrational frequencies (cm⁻¹)
eigval :       -0.00    -0.00    -0.00     0.00     0.00     0.00
eigval :       74.94    87.27    98.43   224.01   254.84   301.61
eigval :      368.91   549.87   769.52   870.19   912.16  1030.99
eigval :     1042.87  1090.59  1107.94  1116.49  1126.88  1162.03
eigval :     1199.81  1233.21  1295.73  1309.50  1344.32  1381.41
eigval :     1385.61  1453.37  1466.63  1474.74  1483.56  1508.15
eigval :     2180.78  2411.58  2802.60  2846.35  2895.17  2918.27
eigval :     2969.52  2987.23  3032.00

   temp. (K)  partition function   enthalpy   heat capacity  entropy
                                   cal/mol     cal/K/mol   cal/K/mol   J/K/mol
 298.15  VIB   102.                 2960.897     18.635     18.863
         ROT  0.182E+06              888.752      2.981     27.051
         INT  0.185E+08             3849.649     21.616     45.914
         TR   0.814E+27             1481.254      4.968     39.357
         TOT                        5330.9030    26.5837    85.2701   356.7703

       T/K    H(0)-H(T)+PV         H(T)/Eh          T*S/Eh         G(T)/Eh
   ------------------------------------------------------------------------
    298.15    0.849533E-02    0.130990E+00    0.405146E-01    0.904757E-01
   ------------------------------------------------------------------------

         :::::::::::::::::::::::::::::::::::::::::::::::::::::
         ::                  THERMODYNAMIC                  ::
         :::::::::::::::::::::::::::::::::::::::::::::::::::::
         :: total free energy         -21.450362176718 Eh   ::
         ::.................................................::
         :: total energy              -21.540837855238 Eh   ::
         :: zero point energy           0.122494939558 Eh   ::
         :: G(RRHO) w/o ZPVE           -0.032019261038 Eh   ::
         :: G(RRHO) contrib.            0.090475678520 Eh   ::
         :::::::::::::::::::::::::::::::::::::::::::::::::::::

           -------------------------------------------------
          | TOTAL ENERGY              -21.540837855238 Eh   |
          | TOTAL ENTHALPY            -21.409847581011 Eh   |
          | TOTAL FREE ENERGY         -21.450362176718 Eh   |
          | GRADIENT NORM               0.000698823902 Eh/α |
          | HOMO-LUMO GAP               8.950607619002 eV   |
           -------------------------------------------------

 * finished run on 2025/10/18 at 01:19:21.373
