                         Program Version 5.0.4 -  RELEASE  -
|  1> !OPT PBE D3BJ CPCM(water)
|  2>
|  3> *xyz -1 1
|  4> C     -6.309138   -3.529029    2.058643
|  5> C     -6.056829   -4.049092    0.779043
|  6> O     -9.350765   -5.310765    2.905625
|  7> H     -7.628539   -3.564127    3.762023
|  8> C     -6.882816   -5.004504    0.155171
|  9> H     -5.178825   -3.699153    0.236892
| 10> C     -7.994550   -5.404426    0.919815
| 11> O     -6.645129   -5.470717   -1.007333
| 12> C     -8.257589   -4.893416    2.197393
| 13> H     -8.661832   -6.141492    0.478768
| 14> C     -7.419934   -3.955335    2.774270
| 15> H     -5.630986   -2.795215    2.479231
| 16> H     -9.796759   -5.956751    2.333125
| 17> *
| 18>
| 19>                          ****END OF INPUT****
 Total Charge           Charge          ....   -1
 Multiplicity           Mult            ....    1
 Number of Electrons    NEL             ....   58
Dispersion correction           -0.012778657
FINAL SINGLE POINT ENERGY      -381.499088593429
Dispersion correction            ... done
Dispersion correction           -0.012659894
FINAL SINGLE POINT ENERGY      -381.504350063573
Dispersion correction            ... done
Dispersion correction           -0.012632040
FINAL SINGLE POINT ENERGY      -381.504840467978
Dispersion correction            ... done
FINAL SINGLE POINT ENERGY      -381.504927869966
FINAL SINGLE POINT ENERGY      -381.504940227274
Dispersion correction            ... done
Dispersion correction           -0.012631614
FINAL SINGLE POINT ENERGY      -381.504942347245
Dispersion correction            ... done
Dispersion correction           -0.012632169
FINAL SINGLE POINT ENERGY      -381.504943019480
Dispersion correction            ... done
                    ***********************HURRAY********************

CARTESIAN COORDINATES (ANGSTROEM)
---------------------------------
  C     -6.296657   -3.525158    2.048291
  C     -6.015607   -4.021422    0.771357
  O     -9.368415   -5.315134    2.922480
  H     -7.645127   -3.560763    3.792439
  C     -6.863230   -5.009498    0.119362
  H     -5.128540   -3.674901    0.213588
  C     -8.011462   -5.417066    0.913182
  O     -6.621554   -5.478502   -1.044061
  C     -8.274421   -4.907347    2.192714
  H     -8.695077   -6.165938    0.472754
  C     -7.421001   -3.948724    2.787970
  H     -5.619465   -2.776983    2.496963
  H     -9.853135   -5.972586    2.385625

 Multiplicity           Mult            ....    1
 Number of Electrons    NEL             ....   58
 Basis Dimension        Dim             ....  137

ORBITAL ENERGIES
----------------

  NO   OCC          E(Eh)            E(eV)
   0   2.0000     -18.764332      -510.6034
   1   2.0000     -18.654187      -507.6062
   2   2.0000      -9.926740      -270.1203
   3   2.0000      -9.905643      -269.5462
   4   2.0000      -9.874868      -268.7088
   5   2.0000      -9.857218      -268.2285
   6   2.0000      -9.850208      -268.0378
   7   2.0000      -9.849517      -268.0190
   8   2.0000      -0.931429       -25.3455
   9   2.0000      -0.834949       -22.7201
  10   2.0000      -0.711791       -19.3688
  11   2.0000      -0.621343       -16.9076
  12   2.0000      -0.603789       -16.4299
  13   2.0000      -0.520419       -14.1613
  14   2.0000      -0.482038       -13.1169
  15   2.0000      -0.442144       -12.0314
  16   2.0000      -0.405793       -11.0422
  17   2.0000      -0.377188       -10.2638
  18   2.0000      -0.342971        -9.3327
  19   2.0000      -0.335471        -9.1286
  20   2.0000      -0.317219        -8.6320
  21   2.0000      -0.312691        -8.5087
  22   2.0000      -0.287575        -7.8253
  23   2.0000      -0.282764        -7.6944
  24   2.0000      -0.270326        -7.3560
  25   2.0000      -0.232690        -6.3318
  26   2.0000      -0.171553        -4.6682
  27   2.0000      -0.141148        -3.8408
  28   2.0000      -0.128715        -3.5025
  29   0.0000       0.001776         0.0483
  30   0.0000       0.028692         0.7808
  31   0.0000       0.058514         1.5922
  32   0.0000       0.068561         1.8656
  33   0.0000       0.112496         3.0612

MULLIKEN ATOMIC CHARGES
-----------------------
   0 C :   -0.030067
   1 C :   -0.163836
   2 O :   -0.223586
   3 H :   -0.042969
   4 C :    0.099306
   5 H :   -0.064282
   6 C :   -0.230563
   7 O :   -0.449163
   8 C :    0.131308
   9 H :   -0.065709
  10 C :   -0.137555
  11 H :   -0.018795
  12 H :    0.195911
Sum of atomic charges:   -1.0000000

LOEWDIN ATOMIC CHARGES
----------------------
   0 C :   -0.065612
   1 C :   -0.171083
   2 O :   -0.082636
   3 H :    0.015914
   4 C :   -0.042275
   5 H :    0.003091
   6 C :   -0.201666
   7 O :   -0.423978
   8 C :    0.010505
   9 H :    0.009028
  10 C :   -0.176462
  11 H :    0.021781
  12 H :    0.103394

  Mayer bond orders larger than 0.100000
B(  0-C ,  1-C ) :   1.3952 B(  0-C , 10-C ) :   1.3114 B(  0-C , 11-H ) :   0.9694
B(  1-C ,  4-C ) :   1.1668 B(  1-C ,  5-H ) :   0.9673 B(  2-O ,  8-C ) :   1.1581
B(  2-O , 12-H ) :   0.9541 B(  3-H , 10-C ) :   0.9841 B(  4-C ,  6-C ) :   1.1394
B(  4-C ,  7-O ) :   1.7885 B(  6-C ,  8-C ) :   1.3204 B(  6-C ,  9-H ) :   0.9664
B(  8-C , 10-C ) :   1.3060

Dispersion correction           -0.012631947
FINAL SINGLE POINT ENERGY      -381.504943246392

DIPOLE MOMENT
-------------
                                X             Y             Z
Electronic contribution:     -1.34377      -1.31175      -0.57966
Nuclear contribution   :      0.06992       1.43834       2.51174
                        -----------------------------------------
Total Dipole Moment    :     -1.27384       0.12659       1.93208
                        -----------------------------------------
Magnitude (a.u.)       :      2.31768
Magnitude (Debye)      :      5.89107

Rotational constants in cm-1:     0.124891     0.061224     0.041084
Rotational constants in MHz :  3744.142921  1835.436519  1231.660180

                             ****ORCA TERMINATED NORMALLY****
TOTAL RUN TIME: 0 days 0 hours 2 minutes 41 seconds 472 msec
