                         Program Version 5.0.4 -  RELEASE  -
|  1> !PBE D3BJ def2-TZVP CPCM(water)
|  2>
|  3> * xyz -1 1
|  4> C     -7.153736   -3.690264   -3.311677
|  5> C     -8.185965   -3.605070   -4.235220
|  6> N     -5.942200   -0.263865   -3.030312
|  7> H     -5.646348   -2.630430   -2.219346
|  8> C     -8.477624   -2.369594   -4.808143
|  9> H     -8.744422   -4.487260   -4.521140
| 10> C     -7.739849   -1.225388   -4.453554
| 11> H     -9.269187   -2.283081   -5.544265
| 12> C     -6.731048   -1.261279   -3.478896
| 13> H     -7.960622   -0.306589   -4.982796
| 14> C     -6.455121   -2.535703   -2.944147
| 15> H     -6.883907   -4.645008   -2.873569
| 16> C     -6.081501    1.068521   -3.220504
| 17> C     -7.234315    1.792438   -3.550114
| 18> H     -3.998315    3.776333   -2.832267
| 19> H     -4.024746    1.330517   -2.638478
| 20> C     -7.217923    3.192114   -3.701377
| 21> H     -8.184050    1.286641   -3.678624
| 22> C     -6.053990    3.914747   -3.453886
| 23> H     -8.128600    3.705112   -3.990148
| 24> C     -4.909739    3.235393   -3.062887
| 25> H     -6.047593    4.993798   -3.553217
| 26> C     -4.935332    1.840248   -2.952406
| 27> *
| 28>
| 29>                          ****END OF INPUT****

CARTESIAN COORDINATES (ANGSTROEM)
---------------------------------
  C     -7.153736   -3.690264   -3.311677
  C     -8.185965   -3.605070   -4.235220
  N     -5.942200   -0.263865   -3.030312
  H     -5.646348   -2.630430   -2.219346
  C     -8.477624   -2.369594   -4.808143
  H     -8.744422   -4.487260   -4.521140
  C     -7.739849   -1.225388   -4.453554
  H     -9.269187   -2.283081   -5.544265
  C     -6.731048   -1.261279   -3.478896
  H     -7.960622   -0.306589   -4.982796
  C     -6.455121   -2.535703   -2.944147
  H     -6.883907   -4.645008   -2.873569
  C     -6.081501    1.068521   -3.220504
  C     -7.234315    1.792438   -3.550114
  H     -3.998315    3.776333   -2.832267
  H     -4.024746    1.330517   -2.638478
  C     -7.217923    3.192114   -3.701377
  H     -8.184050    1.286641   -3.678624
  C     -6.053990    3.914747   -3.453886
  H     -8.128600    3.705112   -3.990148
  C     -4.909739    3.235393   -3.062887
  H     -6.047593    4.993798   -3.553217
  C     -4.935332    1.840248   -2.952406

 Total Charge           Charge          ....   -1
 Multiplicity           Mult            ....    1
 Number of Electrons    NEL             ....   90
 Basis Dimension        Dim             ....  463

ORBITAL ENERGIES
----------------

  NO   OCC          E(Eh)            E(eV)
   0   2.0000     -13.912993      -378.5918
   1   2.0000      -9.888057      -269.0677
   2   2.0000      -9.887552      -269.0540
   3   2.0000      -9.868124      -268.5253
   4   2.0000      -9.867176      -268.4995
   5   2.0000      -9.865807      -268.4623
   6   2.0000      -9.864805      -268.4350
   7   2.0000      -9.856264      -268.2026
   8   2.0000      -9.855868      -268.1918
   9   2.0000      -9.854832      -268.1636
  10   2.0000      -9.854687      -268.1597
  11   2.0000      -9.854308      -268.1494
  12   2.0000      -9.853444      -268.1258
  13   2.0000      -0.808704       -22.0060
  14   2.0000      -0.756200       -20.5772
  15   2.0000      -0.732224       -19.9248
  16   2.0000      -0.662597       -18.0302
  17   2.0000      -0.652869       -17.7655
  18   2.0000      -0.648823       -17.6554
  19   2.0000      -0.610740       -16.6191
  20   2.0000      -0.535412       -14.5693
  21   2.0000      -0.530929       -14.4473
  22   2.0000      -0.515120       -14.0171
  23   2.0000      -0.492834       -13.4107
  24   2.0000      -0.455620       -12.3980
  25   2.0000      -0.429616       -11.6904
  26   2.0000      -0.400153       -10.8887
  27   2.0000      -0.391661       -10.6576
  28   2.0000      -0.378195       -10.2912
  29   2.0000      -0.376174       -10.2362
  30   2.0000      -0.357077        -9.7166
  31   2.0000      -0.350051        -9.5254
  32   2.0000      -0.345687        -9.4066
  33   2.0000      -0.330077        -8.9819
  34   2.0000      -0.313951        -8.5430
  35   2.0000      -0.301294        -8.1986
  36   2.0000      -0.287364        -7.8196
  37   2.0000      -0.286776        -7.8036
  38   2.0000      -0.272010        -7.4018
  39   2.0000      -0.259888        -7.0719
  40   2.0000      -0.219466        -5.9720
  41   2.0000      -0.210944        -5.7401
  42   2.0000      -0.210008        -5.7146
  43   2.0000      -0.170540        -4.6406
  44   2.0000      -0.128718        -3.5026
  45   0.0000      -0.027841        -0.7576
  46   0.0000      -0.024798        -0.6748
  47   0.0000      -0.020094        -0.5468
  48   0.0000       0.026459         0.7200
  49   0.0000       0.041355         1.1253

MULLIKEN ATOMIC CHARGES
-----------------------
   0 C :   -0.132902
   1 C :   -0.206479
   2 N :   -0.323377
   3 H :    0.052826
   4 C :   -0.158919
   5 H :    0.111862
   6 C :   -0.308047
   7 H :    0.119429
   8 C :    0.237259
   9 H :    0.113415
  10 C :   -0.293682
  11 H :    0.113704
  12 C :    0.239498
  13 C :   -0.297719
  14 H :    0.114987
  15 H :    0.056393
  16 C :   -0.158021
  17 H :    0.116128
  18 C :   -0.201789
  19 H :    0.120327
  20 C :   -0.134000
  21 H :    0.112695
  22 C :   -0.293588
Sum of atomic charges:   -1.0000000

LOEWDIN ATOMIC CHARGES
----------------------
   0 C :   -0.189046
   1 C :   -0.224531
   2 N :    0.054824
   3 H :    0.134533
   4 C :   -0.183091
   5 H :    0.137872
   6 C :   -0.169985
   7 H :    0.141482
   8 C :   -0.304000
   9 H :    0.141767
  10 C :   -0.163835
  11 H :    0.142344
  12 C :   -0.300866
  13 C :   -0.166814
  14 H :    0.142752
  15 H :    0.135192
  16 C :   -0.181220
  17 H :    0.142571
  18 C :   -0.221622
  19 H :    0.141816
  20 C :   -0.187217
  21 H :    0.138795
  22 C :   -0.161720

  Mayer bond orders larger than 0.100000
B(  0-C ,  1-C ) :   1.3525 B(  0-C , 10-C ) :   1.4807 B(  0-C , 11-H ) :   0.9789
B(  1-C ,  4-C ) :   1.3788 B(  1-C ,  5-H ) :   0.9780 B(  2-N ,  8-C ) :   1.3435
B(  2-N , 12-C ) :   1.3036 B(  3-H , 10-C ) :   0.9946 B(  4-C ,  6-C ) :   1.3806
B(  4-C ,  7-H ) :   0.9638 B(  6-C ,  8-C ) :   1.2168 B(  6-C ,  9-H ) :   0.9642
B(  8-C , 10-C ) :   1.2870 B( 12-C , 13-C ) :   1.2271 B( 12-C , 22-C ) :   1.2958
B( 13-C , 16-C ) :   1.3789 B( 13-C , 17-H ) :   0.9650 B( 14-H , 20-C ) :   0.9781
B( 15-H , 22-C ) :   0.9937 B( 16-C , 18-C ) :   1.3804 B( 16-C , 19-H ) :   0.9636
B( 18-C , 20-C ) :   1.3560 B( 18-C , 21-H ) :   0.9770 B( 20-C , 22-C ) :   1.4768

Dispersion correction           -0.027361824
FINAL SINGLE POINT ENERGY      -517.703151373378

DIPOLE MOMENT
-------------
                                X             Y             Z
Electronic contribution:      0.89321      -0.23153       0.62711
Nuclear contribution   :     -1.73283       0.61873      -1.19577
                        -----------------------------------------
Total Dipole Moment    :     -0.83962       0.38720      -0.56867
                        -----------------------------------------
Magnitude (a.u.)       :      1.08548
Magnitude (Debye)      :      2.75908

Rotational constants in cm-1:     0.089472     0.013613     0.012003
Rotational constants in MHz :  2682.317544   408.102820   359.843950

                             ****ORCA TERMINATED NORMALLY****
TOTAL RUN TIME: 0 days 0 hours 2 minutes 6 seconds 720 msec
