   * xtb version 6.7.1 (edcfbbe) compiled by 'albert@albert-system' on 2024-07-22

   ID    Z sym.   atoms
    1    8 O      1, 2, 4
    2    1 H      3, 5, 6

          program call               : xtb tb_lite_results_shiftn0p25_gp97_b0_rot90_complex.xyz --ohess --chrg -1 --alpb water
      * Solvation model:               ALPB
        Solvent                        water
        Solvent mass                       1.8000E+01 g/mol
          :  Hamiltonian                  GFN2-xTB          :
 * total energy  :   -13.9404743 Eh     change       -0.1355183E-10 Eh
 * total energy  :   -13.9455113 Eh     change       -0.5037037E-02 Eh
 * total energy  :   -13.9462446 Eh     change       -0.7332179E-03 Eh
 * total energy  :   -13.9463704 Eh     change       -0.1258014E-03 Eh
 * total energy  :   -13.9464329 Eh     change       -0.6255414E-04 Eh
 * total energy  :   -13.9464668 Eh     change       -0.3386549E-04 Eh
 * total energy  :   -13.9465176 Eh     change       -0.5083372E-04 Eh
 * total energy  :   -13.9465749 Eh     change       -0.5724362E-04 Eh
 * total energy  :   -13.9466288 Eh     change       -0.5398307E-04 Eh
 * total energy  :   -13.9466925 Eh     change       -0.6365984E-04 Eh
 * total energy  :   -13.9469705 Eh     change       -0.1744999E-04 Eh
 * total energy  :   -13.9469989 Eh     change       -0.2839823E-04 Eh
 * total energy  :   -13.9470121 Eh     change       -0.1320115E-04 Eh
 * total energy  :   -13.9470413 Eh     change       -0.2924297E-04 Eh
 * total energy  :   -13.9470589 Eh     change       -0.1756123E-04 Eh
 * total energy  :   -13.9470817 Eh     change       -0.2278435E-04 Eh
 * total energy  :   -13.9470944 Eh     change       -0.1272233E-04 Eh
 * total energy  :   -13.9470992 Eh     change       -0.4775053E-05 Eh
 * total energy  :   -13.9471028 Eh     change       -0.3596886E-05 Eh
   *** GEOMETRY OPTIMIZATION CONVERGED AFTER 27 ITERATIONS ***

 final structure:
================
6
 xtb: 6.7.1 (edcfbbe)
O           -2.98340694465997       -4.30856420171689        2.75675776652818
O           -3.90043736167927       -5.32972687760290        2.34376630932846
H           -2.12934309300957       -4.76901954033940        2.72424928388109
O           -4.45539978871652       -5.21575585866882       -0.22088923532427
H           -4.19395858583509       -5.22472534070276        0.74774758102173
H           -5.40770756560631       -5.35684589170478       -0.21121360809609

          :  Hamiltonian                  GFN2-xTB          :
         :: gradient norm              0.000907687216 Eh/a0 ::
         :: HOMO-LUMO gap              7.105533860364 eV    ::
         :: SCC energy               -13.991057229164 Eh    ::
         :: -> dispersion             -0.001418004340 Eh    ::
         :: -> Gsolv                  -0.141793580486 Eh    ::
         :: repulsion energy           0.043954439853 Eh    ::

    * Orbital Energies and Occupations

         #    Occupation            Energy/Eh            Energy/eV
      -------------------------------------------------------------
         1        2.0000           -0.6622819             -18.0216
         2        2.0000           -0.6469213             -17.6036
         3        2.0000           -0.6062465             -16.4968
         4        2.0000           -0.5376164             -14.6293
         5        2.0000           -0.5258156             -14.3082
         6        2.0000           -0.4932275             -13.4214
         7        2.0000           -0.4808397             -13.0843
         8        2.0000           -0.4597839             -12.5114
         9        2.0000           -0.4120710             -11.2130
        10        2.0000           -0.3565395              -9.7019
        11        2.0000           -0.3399457              -9.2504 (HOMO)
        12                         -0.0788220              -2.1449 (LUMO)
        13                          0.1364400               3.7127
        14                          0.1728034               4.7022
        15                          0.2954640               8.0400
      -------------------------------------------------------------
                  HL-Gap            0.2611237 Eh            7.1055 eV

     #   Z          covCN         q      C6AA      α(0)
     1   8 O        1.726    -0.509    23.049     6.482
     2   8 O        0.923    -0.762    30.415     7.396
     3   1 H        0.804     0.347     0.594     1.211
     4   8 O        1.603    -0.714    28.082     7.152
     5   1 H        0.799     0.299     0.725     1.338
     6   1 H        0.805     0.338     0.617     1.233

Wiberg/Mayer (AO) data.
largest (>0.10) Wiberg bond orders for each atom

     #   Z sym  total        # sym  WBO       # sym  WBO       # sym  WBO
 ---------------------------------------------------------------------------
     1   8 O    1.854 --     2 O    0.975     3 H    0.876
     2   8 O    1.127 --     1 O    0.975     5 H    0.101
     3   1 H    0.879 --     1 O    0.876
     4   8 O    1.745 --     6 H    0.885     5 H    0.809
     5   1 H    0.911 --     4 O    0.809     2 O    0.101
     6   1 H    0.886 --     4 O    0.885
 ---------------------------------------------------------------------------

molecular dipole:
                 x           y           z       tot (Debye)
 q only:        7.272       9.347      -3.652
   full:        7.346       9.290      -3.459      31.360

 projected vibrational frequencies (cm⁻¹)
eigval :       -0.00    -0.00     0.00     0.00     0.00     0.00
eigval :       82.73   104.94   141.73   295.19   560.09   862.47
eigval :     1090.71  1211.19  1543.13  2719.28  3453.31  3605.92

   temp. (K)  partition function   enthalpy   heat capacity  entropy
                                   cal/mol     cal/K/mol   cal/K/mol   J/K/mol
 298.15  VIB   22.3                 1800.348      9.547     12.087
         ROT  0.306E+05              888.752      2.981     23.507
         INT  0.683E+06             2689.101     12.528     35.594
         TR   0.353E+27             1481.254      4.968     37.695
         TOT                        4170.3547    17.4965    73.2891   306.6416

       T/K    H(0)-H(T)+PV         H(T)/Eh          T*S/Eh         G(T)/Eh
   ------------------------------------------------------------------------
    298.15    0.664588E-02    0.423463E-01    0.348220E-01    0.752429E-02
   ------------------------------------------------------------------------

         :::::::::::::::::::::::::::::::::::::::::::::::::::::
         ::                  THERMODYNAMIC                  ::
         :::::::::::::::::::::::::::::::::::::::::::::::::::::
         :: total free energy         -13.939578500876 Eh   ::
         ::.................................................::
         :: total energy              -13.947102788822 Eh   ::
         :: zero point energy           0.035700419043 Eh   ::
         :: G(RRHO) w/o ZPVE           -0.028176131097 Eh   ::
         :: G(RRHO) contrib.            0.007524287946 Eh   ::
         :::::::::::::::::::::::::::::::::::::::::::::::::::::

           -------------------------------------------------
          | TOTAL ENERGY              -13.947102788822 Eh   |
          | TOTAL ENTHALPY            -13.904756486568 Eh   |
          | TOTAL FREE ENERGY         -13.939578500876 Eh   |
          | GRADIENT NORM               0.000907916867 Eh/α |
          | HOMO-LUMO GAP               7.105536741132 eV   |
           -------------------------------------------------

 * finished run on 2025/10/18 at 05:04:22.596
normal termination of xtb
