   * xtb version 6.7.1 (edcfbbe) compiled by 'albert@albert-system' on 2024-07-22

   ID    Z sym.   atoms
    1    8 O      1, 2, 4
    2    1 H      3, 5, 6

          program call               : xtb tb_lite_results_shiftn0p25_gp141_b0_rot90_complex.xyz --ohess --chrg -1 --alpb water
      * Solvation model:               ALPB
        Solvent                        water
        Solvent mass                       1.8000E+01 g/mol
          :  Hamiltonian                  GFN2-xTB          :
 * total energy  :   -13.9407539 Eh     change       -0.1235279E-10 Eh
 * total energy  :   -13.9457649 Eh     change       -0.5011005E-02 Eh
 * total energy  :   -13.9462756 Eh     change       -0.5107159E-03 Eh
 * total energy  :   -13.9463068 Eh     change       -0.3124818E-04 Eh
 * total energy  :   -13.9463217 Eh     change       -0.1483120E-04 Eh
 * total energy  :   -13.9463316 Eh     change       -0.9877864E-05 Eh
 * total energy  :   -13.9463477 Eh     change       -0.1615005E-04 Eh
 * total energy  :   -13.9463723 Eh     change       -0.2458723E-04 Eh
 * total energy  :   -13.9463941 Eh     change       -0.2182331E-04 Eh
 * total energy  :   -13.9464369 Eh     change       -0.4275674E-04 Eh
 * total energy  :   -13.9470854 Eh     change       -0.1522060E-04 Eh
 * total energy  :   -13.9470971 Eh     change       -0.1170731E-04 Eh
 * total energy  :   -13.9470996 Eh     change       -0.2500212E-05 Eh
 * total energy  :   -13.9471029 Eh     change       -0.3280081E-05 Eh
 * total energy  :   -13.9471062 Eh     change       -0.3303170E-05 Eh
 * total energy  :   -13.9471125 Eh     change       -0.6256549E-05 Eh
 * total energy  :   -13.9471109 Eh     change        0.1540541E-05 Eh
 * total energy  :   -13.9471173 Eh     change       -0.6342361E-05 Eh
 * total energy  :   -13.9471185 Eh     change       -0.1204947E-05 Eh
   *** GEOMETRY OPTIMIZATION CONVERGED AFTER 37 ITERATIONS ***

 final structure:
================
6
 xtb: 6.7.1 (edcfbbe)
O           -2.93149380028129       -4.76361468460170        2.90512631764739
O           -3.99531092662757       -4.98720921074626        1.96960341681382
H           -2.35535415994936       -4.15122065617255        2.42113142045843
O           -3.76078094846920       -7.34021561467773        0.82337541725046
H           -3.79811690799322       -6.43423807120804        1.25200775169084
H           -4.45690704594409       -7.84030972762587        1.26179796206454

          :  Hamiltonian                  GFN2-xTB          :
         :: gradient norm              0.000568859672 Eh/a0 ::
         :: HOMO-LUMO gap              7.090461162536 eV    ::
         :: SCC energy               -13.991198800787 Eh    ::
         :: -> dispersion             -0.001424371408 Eh    ::
         :: -> Gsolv                  -0.141689840510 Eh    ::
         :: repulsion energy           0.044080318436 Eh    ::

    * Orbital Energies and Occupations

         #    Occupation            Energy/Eh            Energy/eV
      -------------------------------------------------------------
         1        2.0000           -0.6624045             -18.0249
         2        2.0000           -0.6466637             -17.5966
         3        2.0000           -0.6062541             -16.4970
         4        2.0000           -0.5373111             -14.6210
         5        2.0000           -0.5259136             -14.3108
         6        2.0000           -0.4926379             -13.4054
         7        2.0000           -0.4808599             -13.0849
         8        2.0000           -0.4599174             -12.5150
         9        2.0000           -0.4116984             -11.2029
        10        2.0000           -0.3567246              -9.7070
        11        2.0000           -0.3400317              -9.2527 (HOMO)
        12                         -0.0794621              -2.1623 (LUMO)
        13                          0.1370650               3.7297
        14                          0.1735078               4.7214
        15                          0.2960079               8.0548
      -------------------------------------------------------------
                  HL-Gap            0.2605696 Eh            7.0905 eV

     #   Z          covCN         q      C6AA      α(0)
     1   8 O        1.726    -0.508    23.028     6.479
     2   8 O        0.923    -0.764    30.457     7.401
     3   1 H        0.804     0.348     0.593     1.210
     4   8 O        1.604    -0.714    28.081     7.152
     5   1 H        0.800     0.299     0.725     1.338
     6   1 H        0.805     0.338     0.616     1.233

Wiberg/Mayer (AO) data.
largest (>0.10) Wiberg bond orders for each atom

     #   Z sym  total        # sym  WBO       # sym  WBO       # sym  WBO
 ---------------------------------------------------------------------------
     1   8 O    1.854 --     2 O    0.975     3 H    0.876
     2   8 O    1.128 --     1 O    0.975     5 H    0.101
     3   1 H    0.879 --     1 O    0.876
     4   8 O    1.745 --     6 H    0.885     5 H    0.810
     5   1 H    0.911 --     4 O    0.810     2 O    0.101
     6   1 H    0.886 --     4 O    0.885
 ---------------------------------------------------------------------------

molecular dipole:
                 x           y           z       tot (Debye)
 q only:        7.108      10.292      -3.634
   full:        7.125      10.489      -3.526      33.452

 projected vibrational frequencies (cm⁻¹)
eigval :       -0.00    -0.00    -0.00    -0.00     0.00     0.00
eigval :       94.11   131.36   148.33   299.86   549.93   886.64
eigval :     1088.89  1204.69  1537.56  2724.72  3462.63  3606.45

   temp. (K)  partition function   enthalpy   heat capacity  entropy
                                   cal/mol     cal/K/mol   cal/K/mol   J/K/mol
 298.15  VIB   16.4                 1745.835      9.568     11.360
         ROT  0.309E+05              888.752      2.981     23.525
         INT  0.507E+06             2634.587     12.549     34.885
         TR   0.353E+27             1481.254      4.968     37.695
         TOT                        4115.8412    17.5172    72.5800   303.6749

       T/K    H(0)-H(T)+PV         H(T)/Eh          T*S/Eh         G(T)/Eh
   ------------------------------------------------------------------------
    298.15    0.655901E-02    0.424063E-01    0.344851E-01    0.792121E-02
   ------------------------------------------------------------------------

         :::::::::::::::::::::::::::::::::::::::::::::::::::::
         ::                  THERMODYNAMIC                  ::
         :::::::::::::::::::::::::::::::::::::::::::::::::::::
         :: total free energy         -13.939197269960 Eh   ::
         ::.................................................::
         :: total energy              -13.947118483064 Eh   ::
         :: zero point energy           0.035847326297 Eh   ::
         :: G(RRHO) w/o ZPVE           -0.027926113193 Eh   ::
         :: G(RRHO) contrib.            0.007921213104 Eh   ::
         :::::::::::::::::::::::::::::::::::::::::::::::::::::

           -------------------------------------------------
          | TOTAL ENERGY              -13.947118483064 Eh   |
          | TOTAL ENTHALPY            -13.904712146315 Eh   |
          | TOTAL FREE ENERGY         -13.939197269960 Eh   |
          | GRADIENT NORM               0.000568848074 Eh/α |
          | HOMO-LUMO GAP               7.090459730173 eV   |
           -------------------------------------------------

 * finished run on 2025/10/18 at 05:04:21.598
normal termination of xtb
