   * xtb version 6.7.1 (edcfbbe) compiled by 'albert@albert-system' on 2024-07-22

   ID    Z sym.   atoms
    1    8 O      1, 2, 4
    2    1 H      3, 5, 6

          program call               : xtb tb_lite_results_shiftn0p2_gp155_b0_rot90_complex.xyz --ohess --chrg -1 --alpb water
      * Solvation model:               ALPB
        Solvent                        water
        Solvent mass                       1.8000E+01 g/mol
          :  Hamiltonian                  GFN2-xTB          :
 * total energy  :   -13.9410931 Eh     change       -0.1317346E-10 Eh
 * total energy  :   -13.9455608 Eh     change       -0.4467697E-02 Eh
 * total energy  :   -13.9462012 Eh     change       -0.6403872E-03 Eh
 * total energy  :   -13.9463029 Eh     change       -0.1017056E-03 Eh
 * total energy  :   -13.9463795 Eh     change       -0.7659196E-04 Eh
 * total energy  :   -13.9464022 Eh     change       -0.2274652E-04 Eh
 * total energy  :   -13.9464358 Eh     change       -0.3361750E-04 Eh
 * total energy  :   -13.9464684 Eh     change       -0.3260505E-04 Eh
 * total energy  :   -13.9464591 Eh     change        0.9346683E-05 Eh
 * total energy  :   -13.9465364 Eh     change       -0.7733799E-04 Eh
 * total energy  :   -13.9470376 Eh     change       -0.2588595E-04 Eh
 * total energy  :   -13.9469376 Eh     change        0.9997748E-04 Eh
 * total energy  :   -13.9470608 Eh     change       -0.1232207E-03 Eh
 * total energy  :   -13.9470707 Eh     change       -0.9886895E-05 Eh
 * total energy  :   -13.9470805 Eh     change       -0.9791690E-05 Eh
 * total energy  :   -13.9470894 Eh     change       -0.8897937E-05 Eh
 * total energy  :   -13.9470915 Eh     change       -0.2134191E-05 Eh
 * total energy  :   -13.9470939 Eh     change       -0.2337102E-05 Eh
 * total energy  :   -13.9470955 Eh     change       -0.1685145E-05 Eh
   *** GEOMETRY OPTIMIZATION CONVERGED AFTER 32 ITERATIONS ***

 final structure:
================
6
 xtb: 6.7.1 (edcfbbe)
O           -2.81834959034789       -4.63755035947430        2.90235017669389
O           -3.97253028371669       -5.24485732704695        2.30543562126180
H           -2.49536567539441       -4.06212582688356        2.19142133373638
O           -3.35849701616524       -7.66567036630437        1.48449241700679
H           -3.57038329994781       -6.72707145204192        1.76744390369635
H           -3.51410733511949       -8.19483388940106        2.27306938435741

          :  Hamiltonian                  GFN2-xTB          :
         :: gradient norm              0.000344234282 Eh/a0 ::
         :: HOMO-LUMO gap              7.091341531146 eV    ::
         :: SCC energy               -13.991264587163 Eh    ::
         :: -> dispersion             -0.001433501608 Eh    ::
         :: -> Gsolv                  -0.141466073147 Eh    ::
         :: repulsion energy           0.044169047222 Eh    ::

    * Orbital Energies and Occupations

         #    Occupation            Energy/Eh            Energy/eV
      -------------------------------------------------------------
         1        2.0000           -0.6625925             -18.0301
         2        2.0000           -0.6467983             -17.6003
         3        2.0000           -0.6064177             -16.5015
         4        2.0000           -0.5376221             -14.6294
         5        2.0000           -0.5259082             -14.3107
         6        2.0000           -0.4921394             -13.3918
         7        2.0000           -0.4815364             -13.1033
         8        2.0000           -0.4598955             -12.5144
         9        2.0000           -0.4118036             -11.2057
        10        2.0000           -0.3568291              -9.7098
        11        2.0000           -0.3402013              -9.2573 (HOMO)
        12                         -0.0795993              -2.1660 (LUMO)
        13                          0.1367917               3.7223
        14                          0.1740228               4.7354
        15                          0.2966282               8.0717
      -------------------------------------------------------------
                  HL-Gap            0.2606020 Eh            7.0913 eV

     #   Z          covCN         q      C6AA      α(0)
     1   8 O        1.726    -0.506    22.997     6.475
     2   8 O        0.923    -0.765    30.487     7.405
     3   1 H        0.804     0.348     0.593     1.210
     4   8 O        1.604    -0.714    28.086     7.152
     5   1 H        0.800     0.299     0.726     1.338
     6   1 H        0.805     0.338     0.617     1.233

Wiberg/Mayer (AO) data.
largest (>0.10) Wiberg bond orders for each atom

     #   Z sym  total        # sym  WBO       # sym  WBO       # sym  WBO
 ---------------------------------------------------------------------------
     1   8 O    1.854 --     2 O    0.976     3 H    0.876
     2   8 O    1.129 --     1 O    0.976     5 H    0.101
     3   1 H    0.879 --     1 O    0.876
     4   8 O    1.745 --     6 H    0.885     5 H    0.809
     5   1 H    0.911 --     4 O    0.809     2 O    0.101
     6   1 H    0.886 --     4 O    0.885
 ---------------------------------------------------------------------------

molecular dipole:
                 x           y           z       tot (Debye)
 q only:        7.066      10.651      -4.219
   full:        7.098      10.857      -4.134      34.603

 projected vibrational frequencies (cm⁻¹)
eigval :       -0.00    -0.00     0.00     0.00     0.00     0.00
eigval :       28.52   100.10   121.93   301.16   543.08   891.95
eigval :     1088.46  1205.82  1533.15  2721.40  3465.46  3613.42

   temp. (K)  partition function   enthalpy   heat capacity  entropy
                                   cal/mol     cal/K/mol   cal/K/mol   J/K/mol
 298.15  VIB   65.7                 1897.572      8.782     12.975
         ROT  0.312E+05              888.752      2.981     23.543
         INT  0.205E+07             2786.324     11.763     36.518
         TR   0.353E+27             1481.254      4.968     37.695
         TOT                        4267.5782    16.7313    74.2129   310.5069

       T/K    H(0)-H(T)+PV         H(T)/Eh          T*S/Eh         G(T)/Eh
   ------------------------------------------------------------------------
    298.15    0.680082E-02    0.423732E-01    0.352610E-01    0.711220E-02
   ------------------------------------------------------------------------

         :::::::::::::::::::::::::::::::::::::::::::::::::::::
         ::                  THERMODYNAMIC                  ::
         :::::::::::::::::::::::::::::::::::::::::::::::::::::
         :: total free energy         -13.939983343020 Eh   ::
         ::.................................................::
         :: total energy              -13.947095541777 Eh   ::
         :: zero point energy           0.035572342277 Eh   ::
         :: G(RRHO) w/o ZPVE           -0.028460143519 Eh   ::
         :: G(RRHO) contrib.            0.007112198758 Eh   ::
         :::::::::::::::::::::::::::::::::::::::::::::::::::::

           -------------------------------------------------
          | TOTAL ENERGY              -13.947095541777 Eh   |
          | TOTAL ENTHALPY            -13.904722380774 Eh   |
          | TOTAL FREE ENERGY         -13.939983343020 Eh   |
          | GRADIENT NORM               0.000344279614 Eh/α |
          | HOMO-LUMO GAP               7.091342018442 eV   |
           -------------------------------------------------

 * finished run on 2025/10/18 at 05:04:23.571
normal termination of xtb
