   * xtb version 6.7.1 (edcfbbe) compiled by 'albert@albert-system' on 2024-07-22

   ID    Z sym.   atoms
    1    8 O      1, 2
    2    1 H      3

          program call               : xtb tb_lite_results_shiftn0p2_gp155_b0_rot90_solute.xyz --ohess --chrg -1
          :  Hamiltonian                  GFN2-xTB          :
 * total energy  :    -8.7073231 Eh     change       -0.4067857E-12 Eh
 * total energy  :    -8.7090940 Eh     change       -0.1770842E-02 Eh
 * total energy  :    -8.7093014 Eh     change       -0.2074579E-03 Eh
 * total energy  :    -8.7093112 Eh     change       -0.9770557E-05 Eh
 * total energy  :    -8.7093122 Eh     change       -0.9711407E-06 Eh
   *** GEOMETRY OPTIMIZATION CONVERGED AFTER 5 ITERATIONS ***

 final structure:
================
3
 xtb: 6.7.1 (edcfbbe)
O           -2.94356312757719       -4.48096260473465        2.79135048131751
O           -4.17172551016543       -5.22432508284292        2.54294718015631
H           -2.40466140959061       -4.77974338447796        2.05138537511557

          :  Hamiltonian                  GFN2-xTB          :
         :: gradient norm              0.000191339816 Eh/a0 ::
         :: HOMO-LUMO gap              6.533305411712 eV    ::
         :: SCC energy                -8.726204135944 Eh    ::
         :: -> dispersion             -0.000485505045 Eh    ::
         :: repulsion energy           0.016891981612 Eh    ::

    * Orbital Energies and Occupations

         #    Occupation            Energy/Eh            Energy/eV
      -------------------------------------------------------------
         1        2.0000           -0.4154123             -11.3039
         2        2.0000           -0.3266433              -8.8884
         3        2.0000           -0.2920714              -7.9477
         4        2.0000           -0.2239977              -6.0953
         5        2.0000           -0.2081681              -5.6645
         6        2.0000           -0.0774843              -2.1085
         7        2.0000           -0.0649564              -1.7676 (HOMO)
         8                          0.1751382               4.7658 (LUMO)
         9                          0.3921282              10.6704
      -------------------------------------------------------------
                  HL-Gap            0.2400945 Eh            6.5333 eV

     #   Z          covCN         q      C6AA      α(0)
     1   8 O        1.708    -0.481    22.473     6.400
     2   8 O        0.903    -0.727    29.427     7.274
     3   1 H        0.805     0.208     1.075     1.629

Wiberg/Mayer (AO) data.
largest (>0.10) Wiberg bond orders for each atom

     #   Z sym  total        # sym  WBO       # sym  WBO       # sym  WBO
 ---------------------------------------------------------------------------
     1   8 O    1.883 --     3 H    0.953     2 O    0.930
     2   8 O    0.933 --     1 O    0.930
     3   1 H    0.957 --     1 O    0.953
 ---------------------------------------------------------------------------

molecular dipole:
                 x           y           z       tot (Debye)
 q only:        7.462       9.372      -5.225
   full:        7.731       9.380      -5.379      33.786

 projected vibrational frequencies (cm⁻¹)
eigval :       -0.00    -0.00     0.00     0.00     0.00     0.00
eigval :      999.22  1169.28  3537.69

   temp. (K)  partition function   enthalpy   heat capacity  entropy
                                   cal/mol     cal/K/mol   cal/K/mol   J/K/mol
 298.15  VIB   1.01                   35.079      0.604      0.141
         ROT  0.127E+04              888.752      2.981     17.187
         INT  0.129E+04              923.831      3.585     17.328
         TR   0.183E+27             1481.254      4.968     36.397
         TOT                        2405.0854     8.5530    53.7254   224.7873

       T/K    H(0)-H(T)+PV         H(T)/Eh          T*S/Eh         G(T)/Eh
   ------------------------------------------------------------------------
    298.15    0.383275E-02    0.168324E-01    0.255267E-01   -0.869429E-02
   ------------------------------------------------------------------------

         :::::::::::::::::::::::::::::::::::::::::::::::::::::
         ::                  THERMODYNAMIC                  ::
         :::::::::::::::::::::::::::::::::::::::::::::::::::::
         :: total free energy          -8.718006441412 Eh   ::
         ::.................................................::
         :: total energy               -8.709312154332 Eh   ::
         :: zero point energy           0.012999658295 Eh   ::
         :: G(RRHO) w/o ZPVE           -0.021693945375 Eh   ::
         :: G(RRHO) contrib.           -0.008694287080 Eh   ::
         :::::::::::::::::::::::::::::::::::::::::::::::::::::

           -------------------------------------------------
          | TOTAL ENERGY               -8.709312154332 Eh   |
          | TOTAL ENTHALPY             -8.692479748508 Eh   |
          | TOTAL FREE ENERGY          -8.718006441412 Eh   |
          | GRADIENT NORM               0.000191338879 Eh/α |
          | HOMO-LUMO GAP               6.533304748368 eV   |
           -------------------------------------------------

 * finished run on 2025/10/18 at 05:04:23.792
normal termination of xtb
