   * xtb version 6.7.1 (edcfbbe) compiled by 'albert@albert-system' on 2024-07-22

   ID    Z sym.   atoms
    1    8 O      1, 2, 4
    2    1 H      3, 5, 6

          program call               : xtb tb_lite_results_shiftn0p25_gp155_b0_rot90_complex.xyz --ohess --chrg -1 --alpb water
      * Solvation model:               ALPB
        Solvent                        water
        Solvent mass                       1.8000E+01 g/mol
          :  Hamiltonian                  GFN2-xTB          :
 * total energy  :   -13.9404896 Eh     change       -0.1337952E-10 Eh
 * total energy  :   -13.9455738 Eh     change       -0.5084268E-02 Eh
 * total energy  :   -13.9462122 Eh     change       -0.6383766E-03 Eh
 * total energy  :   -13.9462915 Eh     change       -0.7929329E-04 Eh
 * total energy  :   -13.9463575 Eh     change       -0.6597420E-04 Eh
 * total energy  :   -13.9463869 Eh     change       -0.2941132E-04 Eh
 * total energy  :   -13.9464214 Eh     change       -0.3447815E-04 Eh
 * total energy  :   -13.9464624 Eh     change       -0.4105217E-04 Eh
 * total energy  :   -13.9465030 Eh     change       -0.4057866E-04 Eh
 * total energy  :   -13.9465528 Eh     change       -0.4982285E-04 Eh
 * total energy  :   -13.9470139 Eh     change       -0.1958959E-04 Eh
 * total energy  :   -13.9470344 Eh     change       -0.2050743E-04 Eh
 * total energy  :   -13.9470501 Eh     change       -0.1569008E-04 Eh
 * total energy  :   -13.9470658 Eh     change       -0.1567813E-04 Eh
 * total energy  :   -13.9470811 Eh     change       -0.1532846E-04 Eh
 * total energy  :   -13.9470917 Eh     change       -0.1055713E-04 Eh
 * total energy  :   -13.9470931 Eh     change       -0.1368592E-05 Eh
 * total energy  :   -13.9470979 Eh     change       -0.4874866E-05 Eh
 * total energy  :   -13.9471001 Eh     change       -0.2199479E-05 Eh
   *** GEOMETRY OPTIMIZATION CONVERGED AFTER 30 ITERATIONS ***

 final structure:
================
6
 xtb: 6.7.1 (edcfbbe)
O           -2.81802976351719       -4.59425730330888        2.90912056449921
O           -3.95940453644525       -5.22753787764953        2.31503684662103
H           -2.49383990189835       -4.03197426687608        2.18713853780537
O           -3.34084110901833       -7.65325583293703        1.51677755223502
H           -3.54410836508422       -6.71098443707896        1.79515615637397
H           -3.63236294568461       -8.18978400611186        2.26033660017430

          :  Hamiltonian                  GFN2-xTB          :
         :: gradient norm              0.000973242970 Eh/a0 ::
         :: HOMO-LUMO gap              7.093733246965 eV    ::
         :: SCC energy               -13.991138246986 Eh    ::
         :: -> dispersion             -0.001429676475 Eh    ::
         :: -> Gsolv                  -0.141508962930 Eh    ::
         :: repulsion energy           0.044038109354 Eh    ::

    * Orbital Energies and Occupations

         #    Occupation            Energy/Eh            Energy/eV
      -------------------------------------------------------------
         1        2.0000           -0.6625014             -18.0276
         2        2.0000           -0.6467807             -17.5998
         3        2.0000           -0.6064140             -16.5014
         4        2.0000           -0.5376288             -14.6296
         5        2.0000           -0.5258417             -14.3089
         6        2.0000           -0.4924281             -13.3996
         7        2.0000           -0.4813793             -13.0990
         8        2.0000           -0.4598873             -12.5142
         9        2.0000           -0.4117824             -11.2052
        10        2.0000           -0.3568553              -9.7105
        11        2.0000           -0.3401941              -9.2572 (HOMO)
        12                         -0.0795042              -2.1634 (LUMO)
        13                          0.1369754               3.7273
        14                          0.1726462               4.6979
        15                          0.2964112               8.0658
      -------------------------------------------------------------
                  HL-Gap            0.2606899 Eh            7.0937 eV

     #   Z          covCN         q      C6AA      α(0)
     1   8 O        1.726    -0.506    23.006     6.476
     2   8 O        0.923    -0.764    30.467     7.402
     3   1 H        0.804     0.348     0.594     1.210
     4   8 O        1.604    -0.714    28.090     7.153
     5   1 H        0.799     0.299     0.726     1.339
     6   1 H        0.805     0.338     0.616     1.233

Wiberg/Mayer (AO) data.
largest (>0.10) Wiberg bond orders for each atom

     #   Z sym  total        # sym  WBO       # sym  WBO       # sym  WBO
 ---------------------------------------------------------------------------
     1   8 O    1.854 --     2 O    0.976     3 H    0.876
     2   8 O    1.129 --     1 O    0.976     5 H    0.101
     3   1 H    0.879 --     1 O    0.876
     4   8 O    1.745 --     6 H    0.885     5 H    0.809
     5   1 H    0.911 --     4 O    0.809     2 O    0.101
     6   1 H    0.886 --     4 O    0.885
 ---------------------------------------------------------------------------

molecular dipole:
                 x           y           z       tot (Debye)
 q only:        6.962      10.600      -4.279
   full:        6.974      10.804      -4.202      34.387

 projected vibrational frequencies (cm⁻¹)
eigval :       -0.00    -0.00     0.00     0.00     0.00     0.00
eigval :       79.50   124.17   174.11   300.81   539.20   887.91
eigval :     1089.02  1208.51  1533.97  2715.23  3454.43  3618.05

   temp. (K)  partition function   enthalpy   heat capacity  entropy
                                   cal/mol     cal/K/mol   cal/K/mol   J/K/mol
 298.15  VIB   17.7                 1747.862      9.513     11.448
         ROT  0.310E+05              888.752      2.981     23.535
         INT  0.548E+06             2636.615     12.494     34.983
         TR   0.353E+27             1481.254      4.968     37.695
         TOT                        4117.8688    17.4622    72.6780   304.0846

       T/K    H(0)-H(T)+PV         H(T)/Eh          T*S/Eh         G(T)/Eh
   ------------------------------------------------------------------------
    298.15    0.656224E-02    0.423862E-01    0.345316E-01    0.785455E-02
   ------------------------------------------------------------------------

         :::::::::::::::::::::::::::::::::::::::::::::::::::::
         ::                  THERMODYNAMIC                  ::
         :::::::::::::::::::::::::::::::::::::::::::::::::::::
         :: total free energy         -13.939245586963 Eh   ::
         ::.................................................::
         :: total energy              -13.947100139629 Eh   ::
         :: zero point energy           0.035823951911 Eh   ::
         :: G(RRHO) w/o ZPVE           -0.027969399246 Eh   ::
         :: G(RRHO) contrib.            0.007854552665 Eh   ::
         :::::::::::::::::::::::::::::::::::::::::::::::::::::

           -------------------------------------------------
          | TOTAL ENERGY              -13.947100139629 Eh   |
          | TOTAL ENTHALPY            -13.904713946129 Eh   |
          | TOTAL FREE ENERGY         -13.939245586963 Eh   |
          | GRADIENT NORM               0.000973241702 Eh/α |
          | HOMO-LUMO GAP               7.093732798070 eV   |
           -------------------------------------------------

 * finished run on 2025/10/18 at 05:04:19.740
normal termination of xtb
