   * xtb version 6.7.1 (edcfbbe) compiled by 'albert@albert-system' on 2024-07-22

   ID    Z sym.   atoms
    1    8 O      1, 2, 4
    2    1 H      3, 5, 6

          program call               : xtb tb_lite_results_shiftn0p25_gp113_b0_rot90_complex.xyz --ohess --chrg -1 --alpb water
      * Solvation model:               ALPB
        Solvent                        water
        Solvent mass                       1.8000E+01 g/mol
          :  Hamiltonian                  GFN2-xTB          :
 * total energy  :   -13.9409934 Eh     change       -0.1890221E-10 Eh
 * total energy  :   -13.9461573 Eh     change       -0.5163926E-02 Eh
 * total energy  :   -13.9467283 Eh     change       -0.5709858E-03 Eh
 * total energy  :   -13.9467844 Eh     change       -0.5611180E-04 Eh
 * total energy  :   -13.9468192 Eh     change       -0.3476933E-04 Eh
 * total energy  :   -13.9468511 Eh     change       -0.3191323E-04 Eh
 * total energy  :   -13.9468966 Eh     change       -0.4547962E-04 Eh
 * total energy  :   -13.9469422 Eh     change       -0.4565849E-04 Eh
 * total energy  :   -13.9469511 Eh     change       -0.8904708E-05 Eh
 * total energy  :   -13.9469800 Eh     change       -0.2881547E-04 Eh
 * total energy  :   -13.9467583 Eh     change        0.2435552E-03 Eh
 * total energy  :   -13.9470368 Eh     change       -0.2784867E-03 Eh
 * total energy  :   -13.9470447 Eh     change       -0.7882273E-05 Eh
 * total energy  :   -13.9470596 Eh     change       -0.1492486E-04 Eh
 * total energy  :   -13.9470748 Eh     change       -0.1519592E-04 Eh
 * total energy  :   -13.9470340 Eh     change        0.4082570E-04 Eh
 * total energy  :   -13.9470882 Eh     change       -0.5420729E-04 Eh
 * total energy  :   -13.9470911 Eh     change       -0.2884194E-05 Eh
 * total energy  :   -13.9470959 Eh     change       -0.4872675E-05 Eh
   *** GEOMETRY OPTIMIZATION CONVERGED AFTER 20 ITERATIONS ***

 final structure:
================
6
 xtb: 6.7.1 (edcfbbe)
O           -2.79418378345043       -4.56055924745045        2.76363020946051
O           -4.07568335214426       -5.20018531731298        2.68701718093744
H           -2.56514056728665       -4.44245681182133        1.82879507887928
O           -3.72924942076256       -7.78184523856085        3.03723808242464
H           -3.85367642262328       -6.80052421775883        2.86692779250858
H           -3.68053030748157       -7.85375122456879        3.99580896021861

          :  Hamiltonian                  GFN2-xTB          :
         :: gradient norm              0.000544450724 Eh/a0 ::
         :: HOMO-LUMO gap              7.095850583913 eV    ::
         :: SCC energy               -13.991196489081 Eh    ::
         :: -> dispersion             -0.001439172230 Eh    ::
         :: -> Gsolv                  -0.141309400580 Eh    ::
         :: repulsion energy           0.044100557677 Eh    ::

    * Orbital Energies and Occupations

         #    Occupation            Energy/Eh            Energy/eV
      -------------------------------------------------------------
         1        2.0000           -0.6626932             -18.0328
         2        2.0000           -0.6466926             -17.5974
         3        2.0000           -0.6065844             -16.5060
         4        2.0000           -0.5377370             -14.6326
         5        2.0000           -0.5257504             -14.3064
         6        2.0000           -0.4920161             -13.3884
         7        2.0000           -0.4819488             -13.1145
         8        2.0000           -0.4597874             -12.5115
         9        2.0000           -0.4117121             -11.2033
        10        2.0000           -0.3569803              -9.7139
        11        2.0000           -0.3403586              -9.2616 (HOMO)
        12                         -0.0795909              -2.1658 (LUMO)
        13                          0.1362409               3.7073
        14                          0.1745987               4.7511
        15                          0.2957938               8.0490
      -------------------------------------------------------------
                  HL-Gap            0.2607677 Eh            7.0959 eV

     #   Z          covCN         q      C6AA      α(0)
     1   8 O        1.726    -0.506    22.986     6.473
     2   8 O        0.923    -0.765    30.485     7.404
     3   1 H        0.804     0.348     0.593     1.210
     4   8 O        1.603    -0.714    28.097     7.154
     5   1 H        0.799     0.299     0.725     1.338
     6   1 H        0.805     0.338     0.618     1.235

Wiberg/Mayer (AO) data.
largest (>0.10) Wiberg bond orders for each atom

     #   Z sym  total        # sym  WBO       # sym  WBO       # sym  WBO
 ---------------------------------------------------------------------------
     1   8 O    1.854 --     2 O    0.976     3 H    0.876
     2   8 O    1.131 --     1 O    0.976     5 H    0.102
     3   1 H    0.879 --     1 O    0.876
     4   8 O    1.744 --     6 H    0.886     5 H    0.808
     5   1 H    0.911 --     4 O    0.808     2 O    0.102
     6   1 H    0.886 --     4 O    0.886
 ---------------------------------------------------------------------------

molecular dipole:
                 x           y           z       tot (Debye)
 q only:        7.381      10.602      -5.251
   full:        7.451      10.813      -5.278      35.973

 projected vibrational frequencies (cm⁻¹)
eigval :       -0.00    -0.00    -0.00     0.00     0.00     0.00
eigval :       87.11   111.75   144.75   305.00   542.00   902.20
eigval :     1088.46  1205.34  1533.59  2710.61  3469.69  3610.35

   temp. (K)  partition function   enthalpy   heat capacity  entropy
                                   cal/mol     cal/K/mol   cal/K/mol   J/K/mol
 298.15  VIB   19.9                 1778.165      9.539     11.813
         ROT  0.312E+05              888.752      2.981     23.548
         INT  0.622E+06             2666.917     12.520     35.361
         TR   0.353E+27             1481.254      4.968     37.695
         TOT                        4148.1710    17.4885    73.0559   305.6661

       T/K    H(0)-H(T)+PV         H(T)/Eh          T*S/Eh         G(T)/Eh
   ------------------------------------------------------------------------
    298.15    0.661053E-02    0.424025E-01    0.347112E-01    0.769124E-02
   ------------------------------------------------------------------------

         :::::::::::::::::::::::::::::::::::::::::::::::::::::
         ::                  THERMODYNAMIC                  ::
         :::::::::::::::::::::::::::::::::::::::::::::::::::::
         :: total free energy         -13.939404689863 Eh   ::
         ::.................................................::
         :: total energy              -13.947095933185 Eh   ::
         :: zero point energy           0.035791950205 Eh   ::
         :: G(RRHO) w/o ZPVE           -0.028100706883 Eh   ::
         :: G(RRHO) contrib.            0.007691243322 Eh   ::
         :::::::::::::::::::::::::::::::::::::::::::::::::::::

           -------------------------------------------------
          | TOTAL ENERGY              -13.947095933185 Eh   |
          | TOTAL ENTHALPY            -13.904693451716 Eh   |
          | TOTAL FREE ENERGY         -13.939404689863 Eh   |
          | GRADIENT NORM               0.000544438362 Eh/α |
          | HOMO-LUMO GAP               7.095851223357 eV   |
           -------------------------------------------------

 * finished run on 2025/10/18 at 05:04:24.495
normal termination of xtb
