   * xtb version 6.7.1 (edcfbbe) compiled by 'albert@albert-system' on 2024-07-22

   ID    Z sym.   atoms
    1    6 C      1, 2
    2    8 O      3, 7
    3    1 H      4-6, 8, 9

          program call               : xtb xyz.xyz --charge -1 --ohess
          :  Hamiltonian                  GFN2-xTB          :
 * total energy  :   -15.1139190 Eh     change       -0.1348610E-10 Eh
 * total energy  :   -15.1191325 Eh     change       -0.5213490E-02 Eh
 * total energy  :   -15.1215060 Eh     change       -0.2373551E-02 Eh
 * total energy  :   -15.1232838 Eh     change       -0.1777798E-02 Eh
 * total energy  :   -15.1247551 Eh     change       -0.1471279E-02 Eh
 * total energy  :   -15.1265646 Eh     change       -0.1809480E-02 Eh
 * total energy  :   -15.1275509 Eh     change       -0.9863403E-03 Eh
 * total energy  :   -15.1279746 Eh     change       -0.4236972E-03 Eh
 * total energy  :   -15.1281027 Eh     change       -0.1281081E-03 Eh
 * total energy  :   -15.1286211 Eh     change       -0.5183817E-03 Eh
 * total energy  :   -15.1286532 Eh     change       -0.3213528E-04 Eh
 * total energy  :   -15.1287369 Eh     change       -0.8361676E-04 Eh
 * total energy  :   -15.1287724 Eh     change       -0.3559168E-04 Eh
 * total energy  :   -15.1287809 Eh     change       -0.8411007E-05 Eh
 * total energy  :   -15.1287852 Eh     change       -0.4332096E-05 Eh
 * total energy  :   -15.1287859 Eh     change       -0.6668992E-06 Eh
   *** GEOMETRY OPTIMIZATION CONVERGED AFTER 16 ITERATIONS ***

 final structure:
================
9
 xtb: 6.7.1 (edcfbbe)
C           -5.85979656665319       -3.97912889552320        1.21564542644046
C           -6.73019704412383       -5.29092978883214        0.99244101868854
O           -6.73106256538346       -3.01087554527791        1.60402301507714
H           -5.07612654705699       -4.17469171097426        1.98028090935298
H           -5.33090567748840       -3.71731010523213        0.27206641555915
H           -6.36443581244718       -6.09358313430034        1.67442155401837
O           -8.01628933020399       -4.94629913127716        1.23960818320425
H           -6.57726163113728       -5.66405766139334       -0.04643817178763
H           -7.69342982550568       -3.75745402718952        1.52353364944679

          :  Hamiltonian                  GFN2-xTB          :
         :: gradient norm              0.000868470458 Eh/a0 ::
         :: HOMO-LUMO gap             11.629442349791 eV    ::
         :: SCC energy               -15.218428010438 Eh    ::
         :: -> dispersion             -0.004445145469 Eh    ::
         :: repulsion energy           0.089642153495 Eh    ::

    * Orbital Energies and Occupations

         #    Occupation            Energy/Eh            Energy/eV
      -------------------------------------------------------------
         1        2.0000           -0.4512185             -12.2783
         2        2.0000           -0.4359593             -11.8631
         3        2.0000           -0.4047192             -11.0130
         4        2.0000           -0.3704181             -10.0796
         5        2.0000           -0.3381000              -9.2002
         6        2.0000           -0.3323855              -9.0447
         7        2.0000           -0.3016434              -8.2081
         8        2.0000           -0.2852660              -7.7625
         9        2.0000           -0.2676022              -7.2818
        10        2.0000           -0.2119108              -5.7664
        11        2.0000           -0.1737428              -4.7278
        12        2.0000           -0.1716781              -4.6716
        13        2.0000           -0.1570790              -4.2743 (HOMO)
        14                          0.2702951               7.3551 (LUMO)
        15                          0.3004583               8.1759
        16                          0.3034420               8.2571
        17                          0.3246199               8.8334
        18                          0.3499034               9.5214
        19                          0.3880968              10.5607
        20                          0.4367387              11.8843
        21                          0.4900932              13.3361
      -------------------------------------------------------------
                  HL-Gap            0.4273741 Eh           11.6294 eV

     #   Z          covCN         q      C6AA      α(0)
     1   6 C        3.663     0.117    18.917     6.239
     2   6 C        3.663     0.123    18.825     6.224
     3   8 O        1.381    -0.621    26.047     6.871
     4   1 H        0.921    -0.070     4.626     3.364
     5   1 H        0.921    -0.070     4.629     3.365
     6   1 H        0.921    -0.075     4.764     3.414
     7   8 O        1.266    -0.642    26.793     6.956
     8   1 H        0.921    -0.075     4.764     3.413
     9   1 H        0.938     0.314     0.668     1.278

Wiberg/Mayer (AO) data.
largest (>0.10) Wiberg bond orders for each atom

     #   Z sym  total        # sym  WBO       # sym  WBO       # sym  WBO
 ---------------------------------------------------------------------------
     1   6 C    3.980 --     3 O    1.095     4 H    0.960     5 H    0.960
                             2 C    0.923
     2   6 C    3.982 --     7 O    1.106     8 H    0.958     6 H    0.957
                             1 C    0.923
     3   8 O    1.754 --     1 C    1.095     9 H    0.470
     4   1 H    0.995 --     1 C    0.960
     5   1 H    0.995 --     1 C    0.960
     6   1 H    0.994 --     2 C    0.957
     7   8 O    1.719 --     2 C    1.106     9 H    0.416
     8   1 H    0.994 --     2 C    0.958
     9   1 H    0.901 --     3 O    0.470     7 O    0.416
 ---------------------------------------------------------------------------

molecular dipole:
                 x           y           z       tot (Debye)
 q only:       13.421       7.912      -2.514
   full:       13.876       7.633      -2.648      40.812

 projected vibrational frequencies (cm⁻¹)
eigval :       -0.00    -0.00     0.00     0.00     0.00     0.00
eigval :      118.40   399.63   673.63   727.24   856.51   857.12
eigval :     1105.69  1120.74  1130.54  1206.61  1207.66  1227.67
eigval :     1307.79  1377.71  1524.81  1529.74  1712.50  2592.81
eigval :     2643.44  2705.76  2736.99

   temp. (K)  partition function   enthalpy   heat capacity  entropy
                                   cal/mol     cal/K/mol   cal/K/mol   J/K/mol
 298.15  VIB   3.06                  947.270      7.972      5.385
         ROT  0.179E+05              888.752      2.981     22.446
         INT  0.549E+05             1836.022     10.952     27.831
         TR   0.462E+27             1481.254      4.968     38.230
         TOT                        3317.2759    15.9206    66.0611   276.3995

       T/K    H(0)-H(T)+PV         H(T)/Eh          T*S/Eh         G(T)/Eh
   ------------------------------------------------------------------------
    298.15    0.528642E-02    0.708134E-01    0.313877E-01    0.394256E-01
   ------------------------------------------------------------------------

         :::::::::::::::::::::::::::::::::::::::::::::::::::::
         ::                  THERMODYNAMIC                  ::
         :::::::::::::::::::::::::::::::::::::::::::::::::::::
         :: total free energy         -15.089360250829 Eh   ::
         ::.................................................::
         :: total energy              -15.128785856943 Eh   ::
         :: zero point energy           0.065526936353 Eh   ::
         :: G(RRHO) w/o ZPVE           -0.026101330239 Eh   ::
         :: G(RRHO) contrib.            0.039425606114 Eh   ::
         :::::::::::::::::::::::::::::::::::::::::::::::::::::

           -------------------------------------------------
          | TOTAL ENERGY              -15.128785856943 Eh   |
          | TOTAL ENTHALPY            -15.057972504994 Eh   |
          | TOTAL FREE ENERGY         -15.089360250829 Eh   |
          | GRADIENT NORM               0.000868483527 Eh/α |
          | HOMO-LUMO GAP              11.629441866761 eV   |
           -------------------------------------------------

 * finished run on 2025/10/18 at 02:53:35.848
