   * xtb version 6.7.1 (edcfbbe) compiled by 'albert@albert-system' on 2024-07-22

   ID    Z sym.   atoms
    1    6 C      1, 2, 6
    2    8 O      3, 5
    3    1 H      4, 7, 8

          program call               : xtb xyz.xyz --charge -1 --ohess
          :  Hamiltonian                  GFN2-xTB          :
 * total energy  :   -16.2694847 Eh     change       -0.2177458E-10 Eh
 * total energy  :   -16.2711101 Eh     change       -0.1625385E-02 Eh
 * total energy  :   -16.2712839 Eh     change       -0.1738278E-03 Eh
 * total energy  :   -16.2712297 Eh     change        0.5417775E-04 Eh
 * total energy  :   -16.2713223 Eh     change       -0.9255129E-04 Eh
 * total energy  :   -16.2713253 Eh     change       -0.2960548E-05 Eh
   *** GEOMETRY OPTIMIZATION CONVERGED AFTER 6 ITERATIONS ***

 final structure:
================
8
 xtb: 6.7.1 (edcfbbe)
C           -5.34151518428163       -3.65697025372075        0.55121186289433
C           -6.34851752797266       -4.22570089835052        1.18692679604983
O           -8.29633504443297       -5.55355078703328        1.23277282117665
H           -5.22946276845939       -3.81114352154819       -0.51143451034693
O           -7.24621898095850       -5.31002420494869       -0.73201819687024
C           -7.40174801620933       -5.12064667947982        0.48477674133563
H           -4.59936311365066       -3.02460242738757        1.03017821884381
H           -6.49915636403486       -4.09089122753119        2.25416726691693

          :  Hamiltonian                  GFN2-xTB          :
         :: gradient norm              0.000737013008 Eh/a0 ::
         :: HOMO-LUMO gap              2.851660076631 eV    ::
         :: SCC energy               -16.444677602665 Eh    ::
         :: -> dispersion             -0.004445616054 Eh    ::
         :: repulsion energy           0.173352345231 Eh    ::

    * Orbital Energies and Occupations

         #    Occupation            Energy/Eh            Energy/eV
      -------------------------------------------------------------
         1        2.0000           -0.4639802             -12.6255
         2        2.0000           -0.4508484             -12.2682
         3        2.0000           -0.4442134             -12.0877
         4        2.0000           -0.3944619             -10.7339
         5        2.0000           -0.3563740              -9.6974
         6        2.0000           -0.3363810              -9.1534
         7        2.0000           -0.3138648              -8.5407
         8        2.0000           -0.3077986              -8.3756
         9        2.0000           -0.2861083              -7.7854
        10        2.0000           -0.2710459              -7.3755
        11        2.0000           -0.2417762              -6.5791
        12        2.0000           -0.1896519              -5.1607
        13        2.0000           -0.1748771              -4.7586
        14        2.0000           -0.1610154              -4.3815 (HOMO)
        15                         -0.0562187              -1.5298 (LUMO)
        16                          0.0669821               1.8227
        17                          0.2676139               7.2821
        18                          0.3084931               8.3945
        19                          0.3473748               9.4526
        20                          0.5542106              15.0808
        21                          0.6242641              16.9871
        22                          0.7162950              19.4914
        23                          0.9222803              25.0965
      -------------------------------------------------------------
                  HL-Gap            0.1047966 Eh            2.8517 eV

     #   Z          covCN         q      C6AA      α(0)
     1   6 C        2.834    -0.088    30.196     9.005
     2   6 C        2.880    -0.073    29.821     8.952
     3   8 O        0.857    -0.602    26.172     6.859
     4   1 H        0.926     0.025     2.656     2.549
     5   8 O        0.856    -0.597    26.038     6.841
     6   6 C        2.686     0.364    20.823     7.468
     7   1 H        0.925    -0.024     3.518     2.933
     8   1 H        0.925    -0.005     3.145     2.773

Wiberg/Mayer (AO) data.
largest (>0.10) Wiberg bond orders for each atom

     #   Z sym  total        # sym  WBO       # sym  WBO       # sym  WBO
 ---------------------------------------------------------------------------
     1   6 C    3.988 --     2 C    1.977     4 H    0.974     7 H    0.974
     2   6 C    3.957 --     1 C    1.977     8 H    0.971     6 C    0.902
     3   8 O    1.836 --     6 C    1.507     5 O    0.239
     4   1 H    0.999 --     1 C    0.974
     5   8 O    1.843 --     6 C    1.516     3 O    0.239
     6   6 C    3.947 --     5 O    1.516     3 O    1.507     2 C    0.902
     7   1 H    0.999 --     1 C    0.974
     8   1 H    1.000 --     2 C    0.971
 ---------------------------------------------------------------------------

molecular dipole:
                 x           y           z       tot (Debye)
 q only:       14.307       9.972      -0.592
   full:       14.542      10.173      -0.441      45.123

 projected vibrational frequencies (cm⁻¹)
eigval :       -0.00    -0.00     0.00     0.00     0.00     0.00
eigval :       41.66   233.39   410.07   504.20   615.70   776.30
eigval :      804.13   878.69  1012.59  1032.41  1240.01  1293.83
eigval :     1401.37  1684.92  1743.90  2964.51  3002.39  3081.72

   temp. (K)  partition function   enthalpy   heat capacity  entropy
                                   cal/mol     cal/K/mol   cal/K/mol   J/K/mol
 298.15  VIB   11.8                 1481.541      9.869      8.891
         ROT  0.687E+05              888.752      2.981     25.114
         INT  0.811E+06             2370.293     12.850     34.005
         TR   0.579E+27             1481.254      4.968     38.682
         TOT                        3851.5468    17.8177    72.6866   304.1206

       T/K    H(0)-H(T)+PV         H(T)/Eh          T*S/Eh         G(T)/Eh
   ------------------------------------------------------------------------
    298.15    0.613783E-02    0.579019E-01    0.345357E-01    0.233662E-01
   ------------------------------------------------------------------------

         :::::::::::::::::::::::::::::::::::::::::::::::::::::
         ::                  THERMODYNAMIC                  ::
         :::::::::::::::::::::::::::::::::::::::::::::::::::::
         :: total free energy         -16.247959078533 Eh   ::
         ::.................................................::
         :: total energy              -16.271325257448 Eh   ::
         :: zero point energy           0.051764078973 Eh   ::
         :: G(RRHO) w/o ZPVE           -0.028397900057 Eh   ::
         :: G(RRHO) contrib.            0.023366178915 Eh   ::
         :::::::::::::::::::::::::::::::::::::::::::::::::::::

           -------------------------------------------------
          | TOTAL ENERGY              -16.271325257448 Eh   |
          | TOTAL ENTHALPY            -16.213423347887 Eh   |
          | TOTAL FREE ENERGY         -16.247959078533 Eh   |
          | GRADIENT NORM               0.000737117324 Eh/α |
          | HOMO-LUMO GAP               2.851661475789 eV   |
           -------------------------------------------------

 * finished run on 2025/10/18 at 03:39:01.455
