   * xtb version 6.7.1 (edcfbbe) compiled by 'albert@albert-system' on 2024-07-22

   ID    Z sym.   atoms
    1    6 C      1, 2
    2    8 O      3, 7
    3    1 H      4-6, 8, 9

          program call               : xtb xyz.xyz --alpb water --charge -1 --ohess
      * Solvation model:               ALPB
        Solvent                        water
        Solvent mass                       1.8000E+01 g/mol
          :  Hamiltonian                  GFN2-xTB          :
 * total energy  :   -15.2248193 Eh     change       -0.5646257E-09 Eh
 * total energy  :   -15.2295312 Eh     change       -0.4711881E-02 Eh
 * total energy  :   -15.2303965 Eh     change       -0.8653528E-03 Eh
 * total energy  :   -15.2308924 Eh     change       -0.4958493E-03 Eh
 * total energy  :   -15.2317531 Eh     change       -0.8607700E-03 Eh
 * total energy  :   -15.2323803 Eh     change       -0.6271360E-03 Eh
 * total energy  :   -15.2329748 Eh     change       -0.5944750E-03 Eh
 * total energy  :   -15.2331656 Eh     change       -0.1908879E-03 Eh
 * total energy  :   -15.2332391 Eh     change       -0.7341317E-04 Eh
 * total energy  :   -15.2333781 Eh     change       -0.1390853E-03 Eh
 * total energy  :   -15.2334267 Eh     change       -0.4854347E-04 Eh
 * total energy  :   -15.2334937 Eh     change       -0.6704845E-04 Eh
 * total energy  :   -15.2335359 Eh     change       -0.4212552E-04 Eh
 * total energy  :   -15.2335772 Eh     change       -0.4129181E-04 Eh
 * total energy  :   -15.2336141 Eh     change       -0.3695148E-04 Eh
 * total energy  :   -15.2336537 Eh     change       -0.3956023E-04 Eh
 * total energy  :   -15.2336593 Eh     change       -0.5653774E-05 Eh
 * total energy  :   -15.2336576 Eh     change        0.1730731E-05 Eh
 * total energy  :   -15.2336623 Eh     change       -0.4703302E-05 Eh
   *** GEOMETRY OPTIMIZATION CONVERGED AFTER 19 ITERATIONS ***

 final structure:
================
9
 xtb: 6.7.1 (edcfbbe)
C           -5.83586536989767       -3.96906544775056        1.22121589719587
C           -6.70221223542111       -5.27358773344340        0.99035654297012
O           -6.65253276227758       -2.97084905010671        1.60882210811970
H           -5.04913399782095       -4.19103319794683        1.98131439775250
H           -5.29593670218222       -3.72663637721457        0.27429782174197
H           -6.39089159274478       -6.07152479851993        1.67813652636008
O           -8.01837017592890       -4.90519607953611        1.24476377298059
H           -6.59979212329097       -5.63047045789270       -0.04322479832993
H           -7.83477004043579       -3.89596685758919        1.49989973120914

          :  Hamiltonian                  GFN2-xTB          :
         :: gradient norm              0.000953672213 Eh/a0 ::
         :: HOMO-LUMO gap             11.385373332440 eV    ::
         :: SCC energy               -15.329422660859 Eh    ::
         :: -> dispersion             -0.004301120248 Eh    ::
         :: -> Gsolv                  -0.109057142474 Eh    ::
         :: repulsion energy           0.095760366694 Eh    ::

    * Orbital Energies and Occupations

         #    Occupation            Energy/Eh            Energy/eV
      -------------------------------------------------------------
         1        2.0000           -0.6608474             -17.9826
         2        2.0000           -0.6221700             -16.9301
         3        2.0000           -0.5970706             -16.2471
         4        2.0000           -0.5607809             -15.2596
         5        2.0000           -0.5325895             -14.4925
         6        2.0000           -0.5203078             -14.1583
         7        2.0000           -0.5020861             -13.6625
         8        2.0000           -0.4716684             -12.8348
         9        2.0000           -0.4510043             -12.2725
        10        2.0000           -0.4218054             -11.4779
        11        2.0000           -0.3875367             -10.5454
        12        2.0000           -0.3472660              -9.4496
        13        2.0000           -0.3332457              -9.0681 (HOMO)
        14                          0.0851591               2.3173 (LUMO)
        15                          0.1139652               3.1012
        16                          0.1281040               3.4859
        17                          0.1340865               3.6487
        18                          0.1829691               4.9788
        19                          0.1944802               5.2921
        20                          0.2672512               7.2723
        21                          0.2998308               8.1588
      -------------------------------------------------------------
                  HL-Gap            0.4184048 Eh           11.3854 eV

     #   Z          covCN         q      C6AA      α(0)
     1   6 C        3.663     0.143    18.511     6.172
     2   6 C        3.667     0.083    19.442     6.322
     3   8 O        0.873    -0.801    31.607     7.538
     4   1 H        0.920    -0.079     4.871     3.452
     5   1 H        0.920    -0.079     4.881     3.455
     6   1 H        0.923    -0.015     3.332     2.855
     7   8 O        1.630    -0.568    24.422     6.671
     8   1 H        0.923    -0.014     3.321     2.850
     9   1 H        0.797     0.330     0.639     1.256

Wiberg/Mayer (AO) data.
largest (>0.10) Wiberg bond orders for each atom

     #   Z sym  total        # sym  WBO       # sym  WBO       # sym  WBO
 ---------------------------------------------------------------------------
     1   6 C    3.984 --     3 O    1.124     4 H    0.953     5 H    0.953
                             2 C    0.932
     2   6 C    3.965 --     7 O    1.034     8 H    0.974     6 H    0.974
                             1 C    0.932
     3   8 O    1.484 --     1 C    1.124     9 H    0.179
     4   1 H    0.994 --     1 C    0.953
     5   1 H    0.994 --     1 C    0.953
     6   1 H    1.000 --     2 C    0.974
     7   8 O    1.853 --     2 C    1.034     9 H    0.700
     8   1 H    1.000 --     2 C    0.974
     9   1 H    0.891 --     7 O    0.700     3 O    0.179
 ---------------------------------------------------------------------------

molecular dipole:
                 x           y           z       tot (Debye)
 q only:       13.065       6.937      -2.732
   full:       13.433       6.788      -2.820      38.920

 projected vibrational frequencies (cm⁻¹)
eigval :       -0.00    -0.00     0.00     0.00     0.00     0.00
eigval :       73.39   408.67   700.24   844.05   867.87   941.33
eigval :     1070.84  1086.54  1112.98  1195.75  1217.45  1240.82
eigval :     1324.33  1352.07  1490.67  1511.87  2041.97  2527.16
eigval :     2664.68  2826.38  2879.75

   temp. (K)  partition function   enthalpy   heat capacity  entropy
                                   cal/mol     cal/K/mol   cal/K/mol   J/K/mol
 298.15  VIB   4.33                  959.190      7.518      5.972
         ROT  0.367E+05              888.752      2.981     23.868
         INT  0.159E+06             1847.943     10.499     29.839
         TR   0.462E+27             1481.254      4.968     38.230
         TOT                        3329.1968    15.4669    68.0695   284.8027

       T/K    H(0)-H(T)+PV         H(T)/Eh          T*S/Eh         G(T)/Eh
   ------------------------------------------------------------------------
    298.15    0.530541E-02    0.722353E-01    0.323420E-01    0.398933E-01
   ------------------------------------------------------------------------

         :::::::::::::::::::::::::::::::::::::::::::::::::::::
         ::                  THERMODYNAMIC                  ::
         :::::::::::::::::::::::::::::::::::::::::::::::::::::
         :: total free energy         -15.193769041294 Eh   ::
         ::.................................................::
         :: total energy              -15.233662293784 Eh   ::
         :: zero point energy           0.066929841821 Eh   ::
         :: G(RRHO) w/o ZPVE           -0.027036589331 Eh   ::
         :: G(RRHO) contrib.            0.039893252491 Eh   ::
         :::::::::::::::::::::::::::::::::::::::::::::::::::::

           -------------------------------------------------
          | TOTAL ENERGY              -15.233662293784 Eh   |
          | TOTAL ENTHALPY            -15.161427039217 Eh   |
          | TOTAL FREE ENERGY         -15.193769041294 Eh   |
          | GRADIENT NORM               0.000953640279 Eh/α |
          | HOMO-LUMO GAP              11.385372787569 eV   |
           -------------------------------------------------

 * finished run on 2025/10/18 at 02:53:53.670
