   * xtb version 6.7.1 (edcfbbe) compiled by 'albert@albert-system' on 2024-07-22

   ID    Z sym.   atoms
    1    6 C      1, 2, 5, 7, 9, 11
    2    8 O      3, 8
    3    1 H      4, 6, 10, 12, 13

          program call               : xtb xyz.xyz --alpb water --charge -1 --ohess
      * Solvation model:               ALPB
        Solvent                        water
        Solvent mass                       1.8000E+01 g/mol
          :  Hamiltonian                  GFN2-xTB          :
 * total energy  :   -23.8162825 Eh     change       -0.6759251E-09 Eh
 * total energy  :   -23.8183130 Eh     change       -0.2030497E-02 Eh
 * total energy  :   -23.8186071 Eh     change       -0.2941458E-03 Eh
 * total energy  :   -23.8186368 Eh     change       -0.2971040E-04 Eh
 * total energy  :   -23.8186418 Eh     change       -0.5009037E-05 Eh
 * total energy  :   -23.8186428 Eh     change       -0.1007557E-05 Eh
   *** GEOMETRY OPTIMIZATION CONVERGED AFTER 6 ITERATIONS ***

 final structure:
================
13
 xtb: 6.7.1 (edcfbbe)
C           -6.30534624134012       -3.53666490514462        2.03958313333625
C           -6.03331840195830       -4.02802327885800        0.78609473844723
O           -9.35437474103011       -5.31313004072427        2.90657620962417
H           -7.63440327086490       -3.57803306766208        3.74369348586283
C           -6.87258294823178       -4.99225602687140        0.16342855560084
H           -5.16371316925966       -3.69055835510762        0.23382693253187
C           -7.99910272707309       -5.40480937188670        0.92387208231712
O           -6.63388535193634       -5.46269323601747       -1.00746764191373
C           -8.25499605324080       -4.90097261758111        2.17958114451267
H           -8.66173825195245       -6.14037802137345        0.47854041898798
C           -7.41293074236293       -3.95820470093449        2.75892103375652
H           -5.64032227047036       -2.80280587145524        2.47828335826873
H           -9.84697683027916       -5.96549250638353        2.38773254866754

          :  Hamiltonian                  GFN2-xTB          :
         :: gradient norm              0.000176642422 Eh/a0 ::
         :: HOMO-LUMO gap              3.582275026433 eV    ::
         :: SCC energy               -24.131102473203 Eh    ::
         :: -> dispersion             -0.010731996168 Eh    ::
         :: -> Gsolv                  -0.102757290196 Eh    ::
         :: repulsion energy           0.312459640018 Eh    ::

    * Orbital Energies and Occupations

         #    Occupation            Energy/Eh            Energy/eV
      -------------------------------------------------------------
         1        2.0000           -0.6890972             -18.7513
       ...           ...                  ...                  ...
         9        2.0000           -0.5026074             -13.6766
        10        2.0000           -0.4956112             -13.4863
        11        2.0000           -0.4864819             -13.2378
        12        2.0000           -0.4594161             -12.5013
        13        2.0000           -0.4566702             -12.4266
        14        2.0000           -0.4457474             -12.1294
        15        2.0000           -0.4449109             -12.1066
        16        2.0000           -0.4137146             -11.2577
        17        2.0000           -0.4023493             -10.9485
        18        2.0000           -0.4023072             -10.9473
        19        2.0000           -0.3576311              -9.7316
        20        2.0000           -0.3267349              -8.8909
        21        2.0000           -0.3142820              -8.5520 (HOMO)
        22                         -0.1826359              -4.9698 (LUMO)
        23                         -0.1631905              -4.4406
        24                         -0.0479296              -1.3042
        25                          0.0822969               2.2394
        26                          0.1398803               3.8063
        27                          0.1709982               4.6531
        28                          0.1836749               4.9980
        29                          0.2154746               5.8634
        30                          0.2206806               6.0050
        31                          0.2802939               7.6272
        32                          0.4240905              11.5401
       ...                                ...                  ...
        37                          0.7068646              19.2348
      -------------------------------------------------------------
                  HL-Gap            0.1316462 Eh            3.5823 eV

     #   Z          covCN         q      C6AA      α(0)
     1   6 C        2.916    -0.050    29.252     8.869
     2   6 C        2.917    -0.108    30.727     9.090
     3   8 O        1.658    -0.484    22.552     6.411
     4   1 H        0.926     0.012     2.852     2.641
     5   6 C        2.833     0.165    24.445     8.102
     6   1 H        0.925    -0.021     3.452     2.905
     7   6 C        2.917    -0.138    31.531     9.208
     8   8 O        0.857    -0.729    29.523     7.285
     9   6 C        2.842     0.117    25.411     8.261
    10   1 H        0.925    -0.016     3.358     2.866
    11   6 C        2.917    -0.103    30.606     9.072
    12   1 H        0.925     0.005     2.972     2.696
    13   1 H        0.805     0.351     0.585     1.202

Wiberg/Mayer (AO) data.
largest (>0.10) Wiberg bond orders for each atom

     #   Z sym  total        # sym  WBO       # sym  WBO       # sym  WBO
 ---------------------------------------------------------------------------
     1   6 C    3.990 --     2 C    1.499    11 C    1.404    12 H    0.971
     2   6 C    3.975 --     1 C    1.499     5 C    1.242     6 H    0.972
     3   8 O    2.029 --     9 C    1.029    13 H    0.857
     4   1 H    1.000 --    11 C    0.972
     5   6 C    3.965 --     8 O    1.370     7 C    1.252     2 C    1.242
     6   1 H    0.999 --     2 C    0.972
     7   6 C    3.961 --     9 C    1.439     5 C    1.252    10 H    0.966
                             8 O    0.105
     8   8 O    1.666 --     5 C    1.370     7 C    0.105
     9   6 C    3.932 --     7 C    1.439    11 C    1.350     3 O    1.029
    10   1 H    1.000 --     7 C    0.966
    11   6 C    3.967 --     1 C    1.404     9 C    1.350     4 H    0.972
    12   1 H    1.000 --     1 C    0.971
    13   1 H    0.877 --     3 O    0.857
 ---------------------------------------------------------------------------

molecular dipole:
                 x           y           z       tot (Debye)
 q only:       12.803       9.358      -0.199
   full:       12.761       9.306      -0.235      40.149

 projected vibrational frequencies (cm⁻¹)
eigval :       -0.00    -0.00    -0.00    -0.00     0.00     0.00
eigval :      198.96   218.22   328.27   386.05   421.73   472.26
eigval :      496.80   517.25   593.34   653.57   746.70   758.40
eigval :      799.22   834.50   902.16   967.33   984.93  1102.64
eigval :     1121.38  1162.10  1186.71  1260.00  1297.08  1367.23
eigval :     1463.57  1505.59  1545.47  1611.38  3000.72  3009.56
eigval :     3029.21  3083.87  3474.23

   temp. (K)  partition function   enthalpy   heat capacity  entropy
                                   cal/mol     cal/K/mol   cal/K/mol   J/K/mol
 298.15  VIB   7.32                 2307.471     19.650     11.696
         ROT  0.286E+06              888.752      2.981     27.948
         INT  0.209E+07             3196.224     22.631     39.644
         TR   0.110E+28             1481.254      4.968     39.960
         TOT                        4677.4775    27.5992    79.6036   333.0614

       T/K    H(0)-H(T)+PV         H(T)/Eh          T*S/Eh         G(T)/Eh
   ------------------------------------------------------------------------
    298.15    0.745403E-02    0.997208E-01    0.378222E-01    0.618986E-01
   ------------------------------------------------------------------------

         :::::::::::::::::::::::::::::::::::::::::::::::::::::
         ::                  THERMODYNAMIC                  ::
         :::::::::::::::::::::::::::::::::::::::::::::::::::::
         :: total free energy         -23.756744253653 Eh   ::
         ::.................................................::
         :: total energy              -23.818642833445 Eh   ::
         :: zero point energy           0.092266773467 Eh   ::
         :: G(RRHO) w/o ZPVE           -0.030368193676 Eh   ::
         :: G(RRHO) contrib.            0.061898579792 Eh   ::
         :::::::::::::::::::::::::::::::::::::::::::::::::::::

           -------------------------------------------------
          | TOTAL ENERGY              -23.818642833445 Eh   |
          | TOTAL ENTHALPY            -23.718922025117 Eh   |
          | TOTAL FREE ENERGY         -23.756744253653 Eh   |
          | GRADIENT NORM               0.000176649968 Eh/α |
          | HOMO-LUMO GAP               3.582274608437 eV   |
           -------------------------------------------------

 * finished run on 2025/10/18 at 02:58:20.895
