   * xtb version 6.7.1 (edcfbbe) compiled by 'albert@albert-system' on 2024-07-22

   ID    Z sym.   atoms
    1    6 C      1, 2
    2    9 F      3-5
    3    8 O      6
    4    1 H      7, 8

          program call               : xtb xyz.xyz --charge -1 --ohess
          :  Hamiltonian                  GFN2-xTB          :
 * total energy  :   -23.7601627 Eh     change       -0.3355183E-10 Eh
 * total energy  :   -23.7641459 Eh     change       -0.3983180E-02 Eh
 * total energy  :   -23.7648426 Eh     change       -0.6966716E-03 Eh
 * total energy  :   -23.7650052 Eh     change       -0.1626468E-03 Eh
 * total energy  :   -23.7650572 Eh     change       -0.5201757E-04 Eh
 * total energy  :   -23.7650623 Eh     change       -0.5078939E-05 Eh
 * total energy  :   -23.7650641 Eh     change       -0.1776801E-05 Eh
   *** GEOMETRY OPTIMIZATION CONVERGED AFTER 7 ITERATIONS ***

 final structure:
================
8
 xtb: 6.7.1 (edcfbbe)
C           -3.10019737730600       -2.91254832556518        0.33046050520714
C           -4.60773382770024       -3.38094809089714        0.31092779901076
F           -2.24857040912519       -3.87153047748485       -0.16276393883329
F           -2.83740414747905       -1.81920475066110       -0.41840173946131
F           -2.60990539719162       -2.63343723698240        1.55791848958969
O           -5.45597869366900       -2.53134950982922        0.76184718596071
H           -4.52628938909104       -4.37678815963239        0.87427981859133
H           -4.71914075843787       -3.68658944894771       -0.78899212006503

          :  Hamiltonian                  GFN2-xTB          :
         :: gradient norm              0.000293750287 Eh/a0 ::
         :: HOMO-LUMO gap              8.837365266748 eV    ::
         :: SCC energy               -23.844198983503 Eh    ::
         :: -> dispersion             -0.004292731211 Eh    ::
         :: repulsion energy           0.079134905997 Eh    ::

    * Orbital Energies and Occupations

         #    Occupation            Energy/Eh            Energy/eV
      -------------------------------------------------------------
         1        2.0000           -0.7014788             -19.0882
       ...           ...                  ...                  ...
         7        2.0000           -0.4412076             -12.0059
         8        2.0000           -0.4267003             -11.6111
         9        2.0000           -0.3790386             -10.3142
        10        2.0000           -0.3731073             -10.1528
        11        2.0000           -0.3729572             -10.1487
        12        2.0000           -0.3603983              -9.8069
        13        2.0000           -0.3587294              -9.7615
        14        2.0000           -0.3578074              -9.7364
        15        2.0000           -0.3231499              -8.7934
        16        2.0000           -0.3159256              -8.5968
        17        2.0000           -0.2741323              -7.4595
        18        2.0000           -0.1490205              -4.0551
        19        2.0000           -0.1421027              -3.8668 (HOMO)
        20                          0.1826646               4.9706 (LUMO)
        21                          0.2036847               5.5425
        22                          0.2117662               5.7625
        23                          0.2742197               7.4619
        24                          0.3249245               8.8416
        25                          0.3367606               9.1637
        26                          0.5979175              16.2702
      -------------------------------------------------------------
                  HL-Gap            0.3247673 Eh            8.8374 eV

     #   Z          covCN         q      C6AA      α(0)
     1   6 C        3.319     0.436    18.214     6.797
     2   6 C        3.649     0.177    18.063     6.105
     3   9 F        0.789    -0.268    11.963     4.086
     4   9 F        0.790    -0.234    11.589     4.021
     5   9 F        0.790    -0.234    11.588     4.021
     6   8 O        0.855    -0.710    28.987     7.218
     7   1 H        0.913    -0.083     5.015     3.503
     8   1 H        0.913    -0.083     5.015     3.503

Wiberg/Mayer (AO) data.
largest (>0.10) Wiberg bond orders for each atom

     #   Z sym  total        # sym  WBO       # sym  WBO       # sym  WBO
 ---------------------------------------------------------------------------
     1   6 C    3.713 --     5 F    0.939     4 F    0.939     3 F    0.900
                             2 C    0.837
     2   6 C    3.966 --     6 O    1.262     8 H    0.906     7 H    0.906
                             1 C    0.837
     3   9 F    1.011 --     1 C    0.900
     4   9 F    1.050 --     1 C    0.939
     5   9 F    1.051 --     1 C    0.939
     6   8 O    1.497 --     2 C    1.262
     7   1 H    0.993 --     2 C    0.906
     8   1 H    0.993 --     2 C    0.906
 ---------------------------------------------------------------------------

molecular dipole:
                 x           y           z       tot (Debye)
 q only:        8.232       5.068      -1.080
   full:        8.498       4.803      -1.221      25.004

 projected vibrational frequencies (cm⁻¹)
eigval :       -0.00    -0.00    -0.00    -0.00     0.00     0.00
eigval :       88.00   176.05   269.01   368.87   461.64   462.36
eigval :      602.04   680.21   937.38   976.31  1077.53  1114.51
eigval :     1262.52  1283.60  1342.60  1486.76  2205.21  2386.86

   temp. (K)  partition function   enthalpy   heat capacity  entropy
                                   cal/mol     cal/K/mol   cal/K/mol   J/K/mol
 298.15  VIB   12.0                 1960.100     13.523     11.438
         ROT  0.135E+06              888.752      2.981     26.459
         INT  0.162E+07             2848.852     16.504     37.897
         TR   0.953E+27             1481.254      4.968     39.671
         TOT                        4330.1061    21.4723    77.5678   324.5437

       T/K    H(0)-H(T)+PV         H(T)/Eh          T*S/Eh         G(T)/Eh
   ------------------------------------------------------------------------
    298.15    0.690046E-02    0.460427E-01    0.368550E-01    0.918772E-02
   ------------------------------------------------------------------------

         :::::::::::::::::::::::::::::::::::::::::::::::::::::
         ::                  THERMODYNAMIC                  ::
         :::::::::::::::::::::::::::::::::::::::::::::::::::::
         :: total free energy         -23.755876361641 Eh   ::
         ::.................................................::
         :: total energy              -23.765064077506 Eh   ::
         :: zero point energy           0.039142218916 Eh   ::
         :: G(RRHO) w/o ZPVE           -0.029954503051 Eh   ::
         :: G(RRHO) contrib.            0.009187715865 Eh   ::
         :::::::::::::::::::::::::::::::::::::::::::::::::::::

           -------------------------------------------------
          | TOTAL ENERGY              -23.765064077506 Eh   |
          | TOTAL ENTHALPY            -23.719021395216 Eh   |
          | TOTAL FREE ENERGY         -23.755876361641 Eh   |
          | GRADIENT NORM               0.000293699649 Eh/α |
          | HOMO-LUMO GAP               8.837367721330 eV   |
           -------------------------------------------------

 * finished run on 2025/10/18 at 07:19:18.675
