                         Program Version 5.0.4 -  RELEASE  -
|  1> !OPT PBE def2-TZVP CPCM(water)
|  2>
|  3> *xyz -1 1
|  4> C     -5.266936   -6.403754    3.004699
|  5> C     -5.106311   -5.096931    3.631957
|  6> H     -5.938157   -7.124763    3.448568
|  7> C     -4.672317   -8.057163    1.131654
|  8> C     -4.204945   -4.110792    3.047945
|  9> H     -5.652473   -4.848889    4.529902
| 10> C     -3.477540   -4.449921    1.845278
| 11> H     -4.083241   -3.138551    3.506088
| 12> C     -3.622212   -5.737770    1.201665
| 13> O     -2.709857   -3.603511    1.342759
| 14> C     -4.524992   -6.730263    1.787650
| 15> H     -5.375437   -8.702391    1.668433
| 16> H     -5.042975   -7.941293    0.107763
| 17> H     -3.708789   -8.576080    1.092453
| 18> H     -3.072611   -5.953444    0.294606
| 19> *
| 20>
| 21>                          ****END OF INPUT****
 Total Charge           Charge          ....   -1
 Multiplicity           Mult            ....    1
 Number of Electrons    NEL             ....   58
FINAL SINGLE POINT ENERGY      -345.991735114835
FINAL SINGLE POINT ENERGY      -346.007458222400
FINAL SINGLE POINT ENERGY      -346.009411662836
FINAL SINGLE POINT ENERGY      -346.009525541385
FINAL SINGLE POINT ENERGY      -346.009538484660
FINAL SINGLE POINT ENERGY      -346.009552201188
                    ***********************HURRAY********************

CARTESIAN COORDINATES (ANGSTROEM)
---------------------------------
  C     -5.241764   -6.385494    2.983266
  C     -5.078377   -5.123078    3.577593
  H     -5.915287   -7.125613    3.422015
  C     -4.678678   -8.040129    1.149124
  C     -4.223818   -4.169233    3.031247
  H     -5.635006   -4.884655    4.489942
  C     -3.464391   -4.424753    1.832938
  H     -4.109164   -3.190938    3.509474
  C     -3.666201   -5.729827    1.261840
  O     -2.664889   -3.550358    1.314884
  C     -4.524704   -6.688650    1.810739
  H     -5.388869   -8.674949    1.697803
  H     -5.042947   -7.943931    0.113831
  H     -3.717538   -8.576151    1.097945
  H     -3.107160   -5.967758    0.348780

 Multiplicity           Mult            ....    1
 Number of Electrons    NEL             ....   58
 Basis Dimension        Dim             ....  290

ORBITAL ENERGIES
----------------

  NO   OCC          E(Eh)            E(eV)
   0   2.0000     -18.657423      -507.6943
   1   2.0000      -9.898686      -269.3569
   2   2.0000      -9.872639      -268.6482
   3   2.0000      -9.864924      -268.4382
   4   2.0000      -9.863056      -268.3874
   5   2.0000      -9.849187      -268.0100
   6   2.0000      -9.846330      -267.9323
   7   2.0000      -9.843404      -267.8526
   8   2.0000      -0.854652       -23.2563
   9   2.0000      -0.738515       -20.0960
  10   2.0000      -0.669320       -18.2131
  11   2.0000      -0.618839       -16.8395
  12   2.0000      -0.591873       -16.1057
  13   2.0000      -0.507828       -13.8187
  14   2.0000      -0.480960       -13.0876
  15   2.0000      -0.420608       -11.4453
  16   2.0000      -0.389420       -10.5967
  17   2.0000      -0.366399        -9.9702
  18   2.0000      -0.358441        -9.7537
  19   2.0000      -0.335307        -9.1242
  20   2.0000      -0.326327        -8.8798
  21   2.0000      -0.320802        -8.7295
  22   2.0000      -0.311209        -8.4684
  23   2.0000      -0.282906        -7.6983
  24   2.0000      -0.272232        -7.4078
  25   2.0000      -0.250111        -6.8059
  26   2.0000      -0.197465        -5.3733
  27   2.0000      -0.158982        -4.3261
  28   2.0000      -0.141890        -3.8610
  29   0.0000      -0.018378        -0.5001
  30   0.0000       0.010861         0.2955
  31   0.0000       0.040561         1.1037
  32   0.0000       0.056519         1.5379
  33   0.0000       0.081863         2.2276

MULLIKEN ATOMIC CHARGES
-----------------------
   0 C :   -0.301108
   1 C :   -0.147799
   2 H :    0.106862
   3 C :   -0.397432
   4 C :   -0.299581
   5 H :    0.111481
   6 C :    0.240933
   7 H :    0.071586
   8 C :   -0.372136
   9 O :   -0.621532
  10 C :    0.169060
  11 H :    0.129591
  12 H :    0.126063
  13 H :    0.125946
  14 H :    0.058064
Sum of atomic charges:   -1.0000000

LOEWDIN ATOMIC CHARGES
----------------------
   0 C :   -0.215920
   1 C :   -0.203065
   2 H :    0.137785
   3 C :   -0.280470
   4 C :   -0.204713
   5 H :    0.140454
   6 C :   -0.438408
   7 H :    0.130134
   8 C :   -0.174370
   9 O :   -0.197532
  10 C :   -0.214454
  11 H :    0.127833
  12 H :    0.129748
  13 H :    0.129759
  14 H :    0.133220

  Mayer bond orders larger than 0.100000
B(  0-C ,  1-C ) :   1.3565 B(  0-C ,  2-H ) :   0.9740 B(  0-C , 10-C ) :   1.3256
B(  1-C ,  4-C ) :   1.3860 B(  1-C ,  5-H ) :   0.9630 B(  3-C , 10-C ) :   0.9189
B(  3-C , 11-H ) :   0.9826 B(  3-C , 12-H ) :   0.9574 B(  3-C , 13-H ) :   0.9568
B(  4-C ,  6-C ) :   1.1763 B(  4-C ,  7-H ) :   0.9820 B(  6-C ,  8-C ) :   1.1927
B(  6-C ,  9-O ) :   1.7110 B(  8-C , 10-C ) :   1.3144 B(  8-C , 14-H ) :   1.0074

FINAL SINGLE POINT ENERGY      -346.009553189538

DIPOLE MOMENT
-------------
                                X             Y             Z
Electronic contribution:      1.75182       4.67003       0.62974
Nuclear contribution   :     -3.47648      -7.25736       0.04377
                        -----------------------------------------
Total Dipole Moment    :     -1.72466      -2.58734       0.67352
                        -----------------------------------------
Magnitude (a.u.)       :      3.18157
Magnitude (Debye)      :      8.08691

Rotational constants in cm-1:     0.122997     0.060569     0.040894
Rotational constants in MHz :  3687.346435  1815.826948  1225.974082

                             ****ORCA TERMINATED NORMALLY****
TOTAL RUN TIME: 0 days 0 hours 7 minutes 18 seconds 707 msec
