                         Program Version 5.0.4 -  RELEASE  -
|  1> ! OPT PBE D3BJ def2-TZVP CPCM(water)
|  2>
|  3> * xyz -1 1
|  4> H     -3.585041    3.403771   -1.062732
|  5> C     -0.281705    3.423775   -0.200991
|  6> C     -2.645933    3.035886   -0.665709
|  7> H     -1.258905    0.313563    0.807490
|  8> H      0.728345    1.778444    0.734638
|  9> C     -2.561875    1.756665   -0.122962
| 10> C     -1.514606    3.858346   -0.702513
| 11> C     -1.345021    1.306157    0.380843
| 12> H     -3.435959    1.117090   -0.092862
| 13> C     -0.219549    2.135708    0.339614
| 14> H     -1.595034    4.854506   -1.129106
| 15> N      0.819815    4.194669   -0.224690
| 16> H      0.569580    5.090954   -0.655462
| 17> *
| 18>
| 19>                          ****END OF INPUT****
 Total Charge           Charge          ....   -1
 Multiplicity           Mult            ....    1
 Number of Electrons    NEL             ....   50
Dispersion correction           -0.012730268
FINAL SINGLE POINT ENERGY      -286.847874183162
Dispersion correction            ... done
Dispersion correction           -0.012644547
FINAL SINGLE POINT ENERGY      -286.851395744986
Dispersion correction            ... done
Dispersion correction           -0.012618698
FINAL SINGLE POINT ENERGY      -286.851997473177
Dispersion correction            ... done
FINAL SINGLE POINT ENERGY      -286.852079365273
Dispersion correction            ... done
Dispersion correction           -0.012619871
FINAL SINGLE POINT ENERGY      -286.852089429034
Dispersion correction            ... done
Dispersion correction           -0.012620936
FINAL SINGLE POINT ENERGY      -286.852090677073
Dispersion correction            ... done
                    ***********************HURRAY********************

CARTESIAN COORDINATES (ANGSTROEM)
---------------------------------
  H     -3.603853    3.400647   -1.066328
  C     -0.247426    3.456412   -0.205227
  C     -2.653983    3.031861   -0.665702
  H     -1.256070    0.304625    0.811164
  H      0.731175    1.758643    0.744656
  C     -2.587088    1.737361   -0.121417
  C     -1.537692    3.861627   -0.709220
  C     -1.345194    1.307279    0.380776
  H     -3.464456    1.089743   -0.091533
  C     -0.220557    2.124015    0.345581
  H     -1.628304    4.864973   -1.140339
  N      0.866057    4.215281   -0.222126
  H      0.621504    5.117066   -0.654727

 Multiplicity           Mult            ....    1
 Number of Electrons    NEL             ....   50
 Basis Dimension        Dim             ....  253

ORBITAL ENERGIES
----------------

  NO   OCC          E(Eh)            E(eV)
   0   2.0000     -13.895710      -378.1215
   1   2.0000      -9.881825      -268.8981
   2   2.0000      -9.861868      -268.3551
   3   2.0000      -9.861575      -268.3471
   4   2.0000      -9.847965      -267.9767
   5   2.0000      -9.846598      -267.9395
   6   2.0000      -9.846581      -267.9391
   7   2.0000      -0.766257       -20.8509
   8   2.0000      -0.714054       -19.4304
   9   2.0000      -0.642656       -17.4876
  10   2.0000      -0.603844       -16.4314
  11   2.0000      -0.512810       -13.9543
  12   2.0000      -0.492534       -13.4025
  13   2.0000      -0.427541       -11.6340
  14   2.0000      -0.390431       -10.6242
  15   2.0000      -0.368569       -10.0293
  16   2.0000      -0.340296        -9.2599
  17   2.0000      -0.338116        -9.2006
  18   2.0000      -0.310384        -8.4460
  19   2.0000      -0.290267        -7.8986
  20   2.0000      -0.266672        -7.2565
  21   2.0000      -0.237111        -6.4521
  22   2.0000      -0.205356        -5.5880
  23   2.0000      -0.189847        -5.1660
  24   2.0000      -0.123042        -3.3481
  25   0.0000      -0.016425        -0.4469
  26   0.0000       0.013110         0.3567
  27   0.0000       0.045377         1.2348
  28   0.0000       0.060544         1.6475
  29   0.0000       0.075400         2.0517

MULLIKEN ATOMIC CHARGES
-----------------------
   0 H :    0.108672
   1 C :    0.134306
   2 C :   -0.138879
   3 H :    0.105752
   4 H :    0.050792
   5 C :   -0.256127
   6 C :   -0.335621
   7 C :   -0.136169
   8 H :    0.109167
   9 C :   -0.303729
  10 H :    0.096902
  11 N :   -0.621058
  12 H :    0.185992
Sum of atomic charges:   -1.0000000

LOEWDIN ATOMIC CHARGES
----------------------
   0 H :    0.139840
   1 C :   -0.374748
   2 C :   -0.209517
   3 H :    0.140326
   4 H :    0.129562
   5 C :   -0.257234
   6 C :   -0.206359
   7 C :   -0.209579
   8 H :    0.133141
   9 C :   -0.201427
  10 H :    0.133879
  11 N :   -0.343919
  12 H :    0.126036

  Mayer bond orders larger than 0.100000
B(  0-H ,  2-C ) :   0.9566 B(  1-C ,  6-C ) :   1.1911 B(  1-C ,  9-C ) :   1.2482
B(  1-C , 11-N ) :   1.7352 B(  2-C ,  5-C ) :   1.3348 B(  2-C ,  6-C ) :   1.4019
B(  3-H ,  7-C ) :   0.9720 B(  4-H ,  9-C ) :   0.9895 B(  5-C ,  7-C ) :   1.3391
B(  5-C ,  8-H ) :   0.9772 B(  6-C , 10-H ) :   0.9798 B(  7-C ,  9-C ) :   1.5126
B( 11-N , 12-H ) :   0.9482

Dispersion correction           -0.012621012
FINAL SINGLE POINT ENERGY      -286.852090824841

DIPOLE MOMENT
-------------
                                X             Y             Z
Electronic contribution:     -0.16065      -0.28724       0.07648
Nuclear contribution   :     -1.96323      -0.49498      -0.31908
                        -----------------------------------------
Total Dipole Moment    :     -2.12389      -0.78222      -0.24260
                        -----------------------------------------
Magnitude (a.u.)       :      2.27631
Magnitude (Debye)      :      5.78593

Rotational constants in cm-1:     0.187969     0.088596     0.060215
Rotational constants in MHz :  5635.160066  2656.051348  1805.198152

                             ****ORCA TERMINATED NORMALLY****
TOTAL RUN TIME: 0 days 0 hours 5 minutes 27 seconds 15 msec
