   * xtb version 6.7.1 (edcfbbe) compiled by 'albert@albert-system' on 2024-07-22

   ID    Z sym.   atoms
    1    6 C      1, 2
    2    8 O      3, 6
    3    1 H      4, 5, 7-9

          program call               : xtb xyz.xyz --charge -1 --ohess
          :  Hamiltonian                  GFN2-xTB          :
 * total energy  :   -15.0398091 Eh     change       -0.1081446E-10 Eh
 * total energy  :   -15.0426196 Eh     change       -0.2810516E-02 Eh
 * total energy  :   -15.0433216 Eh     change       -0.7019737E-03 Eh
 * total energy  :   -15.0435048 Eh     change       -0.1832351E-03 Eh
 * total energy  :   -15.0435990 Eh     change       -0.9412464E-04 Eh
 * total energy  :   -15.0436516 Eh     change       -0.5259465E-04 Eh
 * total energy  :   -15.0437023 Eh     change       -0.5070080E-04 Eh
 * total energy  :   -15.0437357 Eh     change       -0.3339241E-04 Eh
 * total energy  :   -15.0437427 Eh     change       -0.7030253E-05 Eh
 * total energy  :   -15.0437437 Eh     change       -0.1056486E-05 Eh
   *** GEOMETRY OPTIMIZATION CONVERGED AFTER 10 ITERATIONS ***

 final structure:
================
9
 xtb: 6.7.1 (edcfbbe)
C           -7.04356795477474       -4.57883777178028        1.58980031294601
C           -8.04735827460943       -3.41583673023948        1.57536088553286
O           -7.52393304021481       -5.72353849238356        0.99641979272584
H           -6.11537472311752       -4.23112751441989        1.09098866322999
H           -6.79191624299548       -4.85393992354467        2.63257443613702
O           -7.72408240532687       -5.47178353570804       -0.41228830253711
H           -8.38135600751854       -3.32041403784066        0.54437680682794
H           -8.90649845408281       -3.64539587193541        2.20437449911069
H           -7.58513089735980       -2.48639512214800        1.91191290602676

          :  Hamiltonian                  GFN2-xTB          :
         :: gradient norm              0.000276385543 Eh/a0 ::
         :: HOMO-LUMO gap              6.562583932641 eV    ::
         :: SCC energy               -15.146967744416 Eh    ::
         :: -> dispersion             -0.004074192661 Eh    ::
         :: repulsion energy           0.103224002053 Eh    ::

    * Orbital Energies and Occupations

         #    Occupation            Energy/Eh            Energy/eV
      -------------------------------------------------------------
         1        2.0000           -0.4614247             -12.5560
         2        2.0000           -0.4377989             -11.9131
         3        2.0000           -0.3993743             -10.8675
         4        2.0000           -0.3579858              -9.7413
         5        2.0000           -0.3401166              -9.2550
         6        2.0000           -0.3321411              -9.0380
         7        2.0000           -0.3105539              -8.4506
         8        2.0000           -0.2906780              -7.9098
         9        2.0000           -0.2869727              -7.8089
        10        2.0000           -0.2272050              -6.1826
        11        2.0000           -0.2100286              -5.7152
        12        2.0000           -0.0960255              -2.6130
        13        2.0000           -0.0809540              -2.2029 (HOMO)
        14                          0.1602164               4.3597 (LUMO)
        15                          0.2840314               7.7289
        16                          0.2940691               8.0020
        17                          0.3193718               8.6905
        18                          0.3321302               9.0377
        19                          0.3631426               9.8816
        20                          0.4268447              11.6150
        21                          0.4461954              12.1416
      -------------------------------------------------------------
                  HL-Gap            0.2411705 Eh            6.5626 eV

     #   Z          covCN         q      C6AA      α(0)
     1   6 C        3.674     0.144    18.478     6.160
     2   6 C        3.748    -0.094    22.360     6.744
     3   8 O        1.766    -0.339    19.677     5.990
     4   1 H        0.922    -0.022     3.463     2.910
     5   1 H        0.922    -0.044     3.946     3.107
     6   8 O        0.917    -0.694    28.492     7.158
     7   1 H        0.925     0.061     2.187     2.312
     8   1 H        0.925     0.006     2.952     2.687
     9   1 H        0.924    -0.019     3.401     2.884

Wiberg/Mayer (AO) data.
largest (>0.10) Wiberg bond orders for each atom

     #   Z sym  total        # sym  WBO       # sym  WBO       # sym  WBO
 ---------------------------------------------------------------------------
     1   6 C    3.984 --     3 O    1.052     2 C    0.991     5 H    0.962
                             4 H    0.962
     2   6 C    3.994 --     1 C    0.991     8 H    0.991     9 H    0.990
                             7 H    0.982
     3   8 O    2.023 --     1 C    1.052     6 O    0.902
     4   1 H    1.000 --     1 C    0.962
     5   1 H    0.998 --     1 C    0.962
     6   8 O    0.960 --     3 O    0.902
     7   1 H    0.996 --     2 C    0.982
     8   1 H    1.000 --     2 C    0.991
     9   1 H    1.000 --     2 C    0.990
 ---------------------------------------------------------------------------

molecular dipole:
                 x           y           z       tot (Debye)
 q only:       14.472      10.442      -0.188
   full:       14.582      10.633       0.119      45.872

 projected vibrational frequencies (cm⁻¹)
eigval :       -0.00    -0.00    -0.00     0.00     0.00     0.00
eigval :      122.82   201.06   332.64   471.22   808.05   920.84
eigval :      963.40  1045.45  1105.02  1174.28  1285.39  1336.51
eigval :     1357.84  1458.11  1481.44  1501.43  2725.74  2777.48
eigval :     2964.53  3002.49  3027.43

   temp. (K)  partition function   enthalpy   heat capacity  entropy
                                   cal/mol     cal/K/mol   cal/K/mol   J/K/mol
 298.15  VIB   5.36                 1359.794      9.673      7.885
         ROT  0.403E+05              888.752      2.981     24.052
         INT  0.216E+06             2248.547     12.654     31.937
         TR   0.462E+27             1481.254      4.968     38.230
         TOT                        3729.8007    17.6217    70.1670   293.5787

       T/K    H(0)-H(T)+PV         H(T)/Eh          T*S/Eh         G(T)/Eh
   ------------------------------------------------------------------------
    298.15    0.594382E-02    0.744327E-01    0.333386E-01    0.410941E-01
   ------------------------------------------------------------------------

         :::::::::::::::::::::::::::::::::::::::::::::::::::::
         ::                  THERMODYNAMIC                  ::
         :::::::::::::::::::::::::::::::::::::::::::::::::::::
         :: total free energy         -15.002649638825 Eh   ::
         ::.................................................::
         :: total energy              -15.043743742363 Eh   ::
         :: zero point energy           0.068488892184 Eh   ::
         :: G(RRHO) w/o ZPVE           -0.027394788645 Eh   ::
         :: G(RRHO) contrib.            0.041094103538 Eh   ::
         :::::::::::::::::::::::::::::::::::::::::::::::::::::

           -------------------------------------------------
          | TOTAL ENERGY              -15.043743742363 Eh   |
          | TOTAL ENTHALPY            -14.969311034476 Eh   |
          | TOTAL FREE ENERGY         -15.002649638825 Eh   |
          | GRADIENT NORM               0.000276332779 Eh/α |
          | HOMO-LUMO GAP               6.562582347571 eV   |
           -------------------------------------------------

 * finished run on 2025/10/18 at 02:41:28.463
