                         Program Version 5.0.4 -  RELEASE  -
|  1> !OPT PBE def2-TZVP CPCM(water)
|  2>
|  3> *xyz -1 1
|  4> C     -5.257170   -6.506591    2.925147
|  5> C     -5.094353   -5.261262    3.507937
|  6> C     -2.945980   -6.292666   -0.068029
|  7> H     -4.667426   -7.779365    1.305090
|  8> C     -4.222943   -4.329690    2.928324
|  9> H     -5.633874   -4.996330    4.409787
| 10> C     -3.474591   -4.574746    1.756373
| 11> H     -4.113008   -3.356615    3.407125
| 12> C     -3.668142   -5.861956    1.188204
| 13> O     -2.696161   -3.682207    1.277547
| 14> C     -4.546572   -6.805598    1.769544
| 15> H     -5.927581   -7.236385    3.362617
| 16> H     -2.280912   -5.525699   -0.474282
| 17> H     -2.335436   -7.177558    0.141837
| 18> H     -3.675281   -6.539569   -0.847131
| 19> *
| 20>
| 21>                          ****END OF INPUT****
 Total Charge           Charge          ....   -1
 Multiplicity           Mult            ....    1
 Number of Electrons    NEL             ....   58
FINAL SINGLE POINT ENERGY      -346.004435354995
FINAL SINGLE POINT ENERGY      -346.007440186836
FINAL SINGLE POINT ENERGY      -346.008107209664
FINAL SINGLE POINT ENERGY      -346.008231528485
FINAL SINGLE POINT ENERGY      -346.008260916800
FINAL SINGLE POINT ENERGY      -346.008264392903
                    ***********************HURRAY********************

CARTESIAN COORDINATES (ANGSTROEM)
---------------------------------
  C     -5.276342   -6.512640    2.951134
  C     -5.098087   -5.245192    3.523864
  C     -2.935989   -6.290081   -0.079655
  H     -4.689169   -7.804517    1.323737
  C     -4.232499   -4.319570    2.942803
  H     -5.641373   -4.976441    4.435620
  C     -3.480913   -4.594110    1.747245
  H     -4.099138   -3.331991    3.397283
  C     -3.684350   -5.913053    1.174988
  O     -2.682037   -3.720536    1.225881
  C     -4.560248   -6.816899    1.782625
  H     -5.951816   -7.244154    3.398967
  H     -2.290959   -5.455645   -0.386675
  H     -2.300132   -7.178690    0.067974
  H     -3.616379   -6.522717   -0.915701

 Multiplicity           Mult            ....    1
 Number of Electrons    NEL             ....   58
 Basis Dimension        Dim             ....  290

ORBITAL ENERGIES
----------------

  NO   OCC          E(Eh)            E(eV)
   0   2.0000     -18.657822      -507.7051
   1   2.0000      -9.897187      -269.3161
   2   2.0000      -9.860941      -268.3299
   3   2.0000      -9.859070      -268.2789
   4   2.0000      -9.856367      -268.2054
   5   2.0000      -9.856171      -268.2000
   6   2.0000      -9.850491      -268.0455
   7   2.0000      -9.846235      -267.9297
   8   2.0000      -0.855515       -23.2797
   9   2.0000      -0.733821       -19.9683
  10   2.0000      -0.668732       -18.1971
  11   2.0000      -0.621976       -16.9248
  12   2.0000      -0.583961       -15.8904
  13   2.0000      -0.504112       -13.7176
  14   2.0000      -0.485046       -13.1988
  15   2.0000      -0.416762       -11.3407
  16   2.0000      -0.389675       -10.6036
  17   2.0000      -0.365898        -9.9566
  18   2.0000      -0.354300        -9.6410
  19   2.0000      -0.334869        -9.1123
  20   2.0000      -0.325355        -8.8534
  21   2.0000      -0.318095        -8.6558
  22   2.0000      -0.305710        -8.3188
  23   2.0000      -0.277368        -7.5476
  24   2.0000      -0.271596        -7.3905
  25   2.0000      -0.254354        -6.9213
  26   2.0000      -0.197781        -5.3819
  27   2.0000      -0.159567        -4.3420
  28   2.0000      -0.139316        -3.7910
  29   0.0000      -0.017410        -0.4738
  30   0.0000       0.010591         0.2882
  31   0.0000       0.044303         1.2056
  32   0.0000       0.052351         1.4245
  33   0.0000       0.077224         2.1014

MULLIKEN ATOMIC CHARGES
-----------------------
   0 C :   -0.219366
   1 C :   -0.160536
   2 C :   -0.406482
   3 H :    0.102445
   4 C :   -0.281728
   5 H :    0.107627
   6 C :    0.144208
   7 H :    0.063063
   8 C :    0.023924
   9 O :   -0.608063
  10 C :   -0.220260
  11 H :    0.109270
  12 H :    0.106457
  13 H :    0.119711
  14 H :    0.119731
Sum of atomic charges:   -1.0000000

LOEWDIN ATOMIC CHARGES
----------------------
   0 C :   -0.241134
   1 C :   -0.211120
   2 C :   -0.299818
   3 H :    0.142557
   4 C :   -0.202929
   5 H :    0.139228
   6 C :   -0.404307
   7 H :    0.130171
   8 C :   -0.196692
   9 O :   -0.187675
  10 C :   -0.176332
  11 H :    0.135490
  12 H :    0.120651
  13 H :    0.125974
  14 H :    0.125936

  Mayer bond orders larger than 0.100000
B(  0-C ,  1-C ) :   1.3624 B(  0-C , 10-C ) :   1.3683 B(  0-C , 11-H ) :   0.9778
B(  1-C ,  4-C ) :   1.4215 B(  1-C ,  5-H ) :   0.9650 B(  2-C ,  8-C ) :   0.9413
B(  2-C , 12-H ) :   0.9739 B(  2-C , 13-H ) :   0.9588 B(  2-C , 14-H ) :   0.9583
B(  3-H , 10-C ) :   0.9810 B(  4-C ,  6-C ) :   1.2766 B(  4-C ,  7-H ) :   0.9839
B(  6-C ,  8-C ) :   1.0725 B(  6-C ,  9-O ) :   1.7532 B(  8-C , 10-C ) :   1.3186

FINAL SINGLE POINT ENERGY      -346.008266113292

DIPOLE MOMENT
-------------
                                X             Y             Z
Electronic contribution:     -0.31938       2.41812       1.97907
Nuclear contribution   :     -0.85607      -4.36092      -1.62955
                        -----------------------------------------
Total Dipole Moment    :     -1.17544      -1.94280       0.34953
                        -----------------------------------------
Magnitude (a.u.)       :      2.29745
Magnitude (Debye)      :      5.83966

Rotational constants in cm-1:     0.108461     0.074168     0.044414
Rotational constants in MHz :  3251.587103  2223.505931  1331.489779

                             ****ORCA TERMINATED NORMALLY****
TOTAL RUN TIME: 0 days 0 hours 6 minutes 39 seconds 472 msec
