                         Program Version 5.0.4 -  RELEASE  -
|  1> !OPT PBE D3BJ def2-TZVP CPCM(water)
|  2>
|  3> *xyz -1 1
|  4> C     -3.091171   -2.902271    0.333862
|  5> C     -4.568904   -3.398492    0.299112
|  6> F     -2.275744   -3.880984   -0.160814
|  7> F     -2.868614   -1.808820   -0.435777
|  8> F     -2.637027   -2.636153    1.582960
|  9> O     -5.423061   -2.491705    0.777338
| 10> H     -4.529523   -4.372416    0.813493
| 11> H     -4.711176   -3.721555   -0.744898
| 12> *
| 13>
| 14>                          ****END OF INPUT****
 Total Charge           Charge          ....   -1
 Multiplicity           Mult            ....    1
 Number of Electrons    NEL             ....   50
Dispersion correction           -0.004363128
FINAL SINGLE POINT ENERGY      -452.033059138833
Dispersion correction            ... done
Dispersion correction           -0.004354824
FINAL SINGLE POINT ENERGY      -452.035806128974
Dispersion correction            ... done
Dispersion correction           -0.004355219
FINAL SINGLE POINT ENERGY      -452.036053147266
Dispersion correction            ... done
FINAL SINGLE POINT ENERGY      -452.036081435710
Dispersion correction            ... done
Dispersion correction           -0.004355427
FINAL SINGLE POINT ENERGY      -452.036085618498
Dispersion correction            ... done
Dispersion correction           -0.004355334
FINAL SINGLE POINT ENERGY      -452.036086738122
Dispersion correction            ... done
                    ***********************HURRAY********************

CARTESIAN COORDINATES (ANGSTROEM)
---------------------------------
  C     -3.102842   -2.934873    0.321020
  C     -4.569824   -3.390998    0.302059
  F     -2.237697   -3.887160   -0.173739
  F     -2.881529   -1.805516   -0.424958
  F     -2.650660   -2.638106    1.581093
  O     -5.433600   -2.478108    0.777944
  H     -4.519705   -4.375624    0.860190
  H     -4.709364   -3.702010   -0.778334

 Multiplicity           Mult            ....    1
 Number of Electrons    NEL             ....   50
 Basis Dimension        Dim             ....  198

ORBITAL ENERGIES
----------------

  NO   OCC          E(Eh)            E(eV)
   0   2.0000     -24.267009      -660.3389
   1   2.0000     -24.266684      -660.3301
   2   2.0000     -24.266676      -660.3298
   3   2.0000     -18.627673      -506.8847
   4   2.0000     -10.084383      -274.4100
   5   2.0000      -9.901853      -269.4431
   6   2.0000      -1.176896       -32.0250
   7   2.0000      -1.096447       -29.8358
   8   2.0000      -1.096190       -29.8289
   9   2.0000      -0.819132       -22.2897
  10   2.0000      -0.641434       -17.4543
  11   2.0000      -0.557437       -15.1686
  12   2.0000      -0.508604       -13.8398
  13   2.0000      -0.505736       -13.7618
  14   2.0000      -0.435929       -11.8622
  15   2.0000      -0.388138       -10.5618
  16   2.0000      -0.387902       -10.5554
  17   2.0000      -0.366581        -9.9752
  18   2.0000      -0.353043        -9.6068
  19   2.0000      -0.332010        -9.0344
  20   2.0000      -0.329472        -8.9654
  21   2.0000      -0.320371        -8.7177
  22   2.0000      -0.293472        -7.9858
  23   2.0000      -0.147076        -4.0021
  24   2.0000      -0.138996        -3.7823
  25   0.0000       0.051063         1.3895
  26   0.0000       0.078606         2.1390
  27   0.0000       0.085764         2.3338
  28   0.0000       0.115890         3.1535
  29   0.0000       0.128056         3.4846

MULLIKEN ATOMIC CHARGES
-----------------------
   0 C :    0.375736
   1 C :   -0.066689
   2 F :   -0.182786
   3 F :   -0.180522
   4 F :   -0.180450
   5 O :   -0.799264
   6 H :    0.016938
   7 H :    0.017038
Sum of atomic charges:   -1.0000000

LOEWDIN ATOMIC CHARGES
----------------------
   0 C :   -0.669674
   1 C :   -0.548783
   2 F :    0.137113
   3 F :    0.147374
   4 F :    0.147635
   5 O :   -0.405856
   6 H :    0.096151
   7 H :    0.096040

  Mayer bond orders larger than 0.100000
B(  0-C ,  1-C ) :   0.9396 B(  0-C ,  2-F ) :   1.1025 B(  0-C ,  3-F ) :   1.1234
B(  0-C ,  4-F ) :   1.1234 B(  1-C ,  5-O ) :   1.4875 B(  1-C ,  6-H ) :   0.8857
B(  1-C ,  7-H ) :   0.8856

Dispersion correction           -0.004355305
FINAL SINGLE POINT ENERGY      -452.036086921709

DIPOLE MOMENT
-------------
                                X             Y             Z
Electronic contribution:      7.04800       1.64367      -0.13450
Nuclear contribution   :     -4.55426      -2.42645      -0.47494
                        -----------------------------------------
Total Dipole Moment    :      2.49374      -0.78279      -0.60944
                        -----------------------------------------
Magnitude (a.u.)       :      2.68383
Magnitude (Debye)      :      6.82175

Rotational constants in cm-1:     0.174764     0.094062     0.092704
Rotational constants in MHz :  5239.306649  2819.916344  2779.208838

                             ****ORCA TERMINATED NORMALLY****
TOTAL RUN TIME: 0 days 0 hours 2 minutes 20 seconds 261 msec
