                         Program Version 5.0.4 -  RELEASE  -
|  1> !OPT PBE def2-TZVP CPCM(water)
|  2>
|  3> *xyz -1 1
|  4> C     -5.669516   -3.877926    0.521747
|  5> C     -6.967935   -4.308641    1.175878
|  6> H     -4.923364   -4.678180    0.563744
|  7> H     -5.825347   -3.614912   -0.529580
|  8> H     -5.257829   -3.002223    1.033098
|  9> C     -7.642110   -5.532826    0.550458
| 10> H     -6.778668   -4.529502    2.233085
| 11> H     -7.680992   -3.476530    1.138346
| 12> O     -7.087770   -6.023814   -0.470692
| 13> O     -8.693426   -5.904311    1.148301
| 14> *
| 15>
| 16>                          ****END OF INPUT****
 Total Charge           Charge          ....   -1
 Multiplicity           Mult            ....    1
 Number of Electrons    NEL             ....   40
FINAL SINGLE POINT ENERGY      -267.737679353696
FINAL SINGLE POINT ENERGY      -267.739068925283
FINAL SINGLE POINT ENERGY      -267.738839990525
FINAL SINGLE POINT ENERGY      -267.739184143431
FINAL SINGLE POINT ENERGY      -267.739236921732
FINAL SINGLE POINT ENERGY      -267.739247437585
FINAL SINGLE POINT ENERGY      -267.739253482144
FINAL SINGLE POINT ENERGY      -267.739261716283
FINAL SINGLE POINT ENERGY      -267.739268513395
FINAL SINGLE POINT ENERGY      -267.739274842096
FINAL SINGLE POINT ENERGY      -267.739278041709
                    ***********************HURRAY********************

CARTESIAN COORDINATES (ANGSTROEM)
---------------------------------
  C     -5.659144   -3.850609    0.512058
  C     -6.951194   -4.310917    1.180795
  H     -4.904455   -4.650105    0.510441
  H     -5.832584   -3.562259   -0.535151
  H     -5.230611   -2.980946    1.034556
  C     -7.651509   -5.542593    0.553975
  H     -6.765298   -4.557111    2.240638
  H     -7.688992   -3.491505    1.200053
  O     -7.065206   -6.154861   -0.388203
  O     -8.777964   -5.847959    1.055224

 Multiplicity           Mult            ....    1
 Number of Electrons    NEL             ....   40
 Basis Dimension        Dim             ....  185

ORBITAL ENERGIES
----------------

  NO   OCC          E(Eh)            E(eV)
   0   2.0000     -18.673166      -508.1227
   1   2.0000     -18.669738      -508.0294
   2   2.0000      -9.938468      -270.4395
   3   2.0000      -9.861778      -268.3526
   4   2.0000      -9.858150      -268.2539
   5   2.0000      -0.910252       -24.7692
   6   2.0000      -0.826214       -22.4824
   7   2.0000      -0.672604       -18.3025
   8   2.0000      -0.552833       -15.0433
   9   2.0000      -0.423617       -11.5272
  10   2.0000      -0.388792       -10.5796
  11   2.0000      -0.370555       -10.0833
  12   2.0000      -0.347399        -9.4532
  13   2.0000      -0.321975        -8.7614
  14   2.0000      -0.316188        -8.6039
  15   2.0000      -0.296844        -8.0775
  16   2.0000      -0.276304        -7.5186
  17   2.0000      -0.198724        -5.4076
  18   2.0000      -0.180495        -4.9115
  19   2.0000      -0.169830        -4.6213
  20   0.0000       0.027626         0.7517
  21   0.0000       0.033670         0.9162
  22   0.0000       0.072746         1.9795
  23   0.0000       0.094137         2.5616
  24   0.0000       0.097472         2.6524

MULLIKEN ATOMIC CHARGES
-----------------------
   0 C :   -0.354982
   1 C :   -0.237505
   2 H :    0.102520
   3 H :    0.106348
   4 H :    0.112624
   5 C :    0.156663
   6 H :    0.100420
   7 H :    0.096396
   8 O :   -0.531134
   9 O :   -0.551351
Sum of atomic charges:   -1.0000000

LOEWDIN ATOMIC CHARGES
----------------------
   0 C :   -0.341160
   1 C :   -0.310472
   2 H :    0.116698
   3 H :    0.117625
   4 H :    0.117538
   5 C :   -0.701149
   6 H :    0.141306
   7 H :    0.138625
   8 O :   -0.130089
   9 O :   -0.148924

  Mayer bond orders larger than 0.100000
B(  0-C ,  1-C ) :   0.9804 B(  0-C ,  2-H ) :   0.9676 B(  0-C ,  3-H ) :   0.9702
B(  0-C ,  4-H ) :   0.9525 B(  1-C ,  5-C ) :   0.9447 B(  1-C ,  6-H ) :   0.9366
B(  1-C ,  7-H ) :   0.9416 B(  1-C ,  8-O ) :  -0.1024 B(  5-C ,  8-O ) :   1.8613
B(  5-C ,  9-O ) :   1.8448

FINAL SINGLE POINT ENERGY      -267.739278442726

DIPOLE MOMENT
-------------
                                X             Y             Z
Electronic contribution:     -3.76806      -4.07542      -0.79501
Nuclear contribution   :      5.30192       6.06203       1.46268
                        -----------------------------------------
Total Dipole Moment    :      1.53385       1.98661       0.66767
                        -----------------------------------------
Magnitude (a.u.)       :      2.59713
Magnitude (Debye)      :      6.60139

Rotational constants in cm-1:     0.337957     0.130158     0.097455
Rotational constants in MHz : 10131.707685  3902.025308  2921.639924

                             ****ORCA TERMINATED NORMALLY****
TOTAL RUN TIME: 0 days 0 hours 4 minutes 35 seconds 663 msec
