   * xtb version 6.7.1 (edcfbbe) compiled by 'albert@albert-system' on 2024-07-22

   ID    Z sym.   atoms
    1    6 C      1, 2, 4, 6, 8, 10
    2    7 N      3
    3    1 H      5, 7, 9, 11
    4    8 O      12-14

          program call               : xtb xyz.xyz --charge -1 --ohess
          :  Hamiltonian                  GFN2-xTB          :
 * total energy  :   -30.1282732 Eh     change       -0.9811174E-10 Eh
 * total energy  :   -30.1421481 Eh     change       -0.1387486E-01 Eh
 * total energy  :   -30.1442204 Eh     change       -0.2072333E-02 Eh
 * total energy  :   -30.1444841 Eh     change       -0.2637255E-03 Eh
 * total energy  :   -30.1445297 Eh     change       -0.4560417E-04 Eh
 * total energy  :   -30.1445333 Eh     change       -0.3590585E-05 Eh
   *** GEOMETRY OPTIMIZATION CONVERGED AFTER 6 ITERATIONS ***

 final structure:
================
14
 xtb: 6.7.1 (edcfbbe)
C           -4.07782582955953       -1.94886761706601        1.93183887863290
C           -3.79114404247787       -2.42125147808699        0.69257733164043
N           -7.20387672323999       -3.88249440104421        2.61661259938525
C           -5.22901973511142       -2.37075854932941        2.70949683766297
H           -3.43876155176003       -1.21457761249999        2.40565562691900
C           -4.62070106245630       -3.37515486373549        0.07619851666829
H           -2.91328273542657       -2.06475173967575        0.16253811432186
C           -5.72361851535507       -3.81952419435606        0.74850500629975
H           -4.38512544337114       -3.74659538603222       -0.91185233615528
C           -6.05593342106720       -3.35697270774224        2.03104111534803
H           -6.38237250902989       -4.55268836731655        0.30308975419640
O           -5.43644537042776       -1.90219879190474        3.83569029430922
O           -7.86221175430337       -4.72379553349643        1.97508760735963
O           -7.56447930641386       -3.53084675771392        3.73645365341154

          :  Hamiltonian                  GFN2-xTB          :
         :: gradient norm              0.000470996502 Eh/a0 ::
         :: HOMO-LUMO gap              2.004414959895 eV    ::
         :: SCC energy               -30.476890937195 Eh    ::
         :: -> dispersion             -0.013093075038 Eh    ::
         :: repulsion energy           0.332357633444 Eh    ::

    * Orbital Energies and Occupations

         #    Occupation            Energy/Eh            Energy/eV
      -------------------------------------------------------------
         1        2.0000           -0.5770886             -15.7034
       ...           ...                  ...                  ...
        14        2.0000           -0.3613878              -9.8339
        15        2.0000           -0.3531632              -9.6101
        16        2.0000           -0.3502485              -9.5307
        17        2.0000           -0.3357447              -9.1361
        18        2.0000           -0.3109923              -8.4625
        19        2.0000           -0.3089931              -8.4081
        20        2.0000           -0.2950673              -8.0292
        21        2.0000           -0.2813016              -7.6546
        22        2.0000           -0.2685383              -7.3073
        23        2.0000           -0.2614976              -7.1157
        24        2.0000           -0.2573839              -7.0038
        25        2.0000           -0.2119412              -5.7672
        26        2.0000           -0.2101555              -5.7186 (HOMO)
        27                         -0.1364945              -3.7142 (LUMO)
        28                         -0.0613591              -1.6697
        29                         -0.0533476              -1.4517
        30                          0.0609450               1.6584
        31                          0.1890683               5.1448
        32                          0.2500840               6.8051
        33                          0.2746067               7.4724
        34                          0.2998447               8.1592
        35                          0.3186706               8.6715
        36                          0.3570449               9.7157
        37                          0.4262906              11.6000
       ...                                ...                  ...
        44                          0.8531994              23.2167
      -------------------------------------------------------------
                  HL-Gap            0.0736610 Eh            2.0044 eV

     #   Z          covCN         q      C6AA      α(0)
     1   6 C        2.914    -0.084    30.097     8.996
     2   6 C        2.911    -0.038    28.935     8.821
     3   7 N        2.764     0.500    14.026     5.562
     4   6 C        2.825     0.203    23.683     7.974
     5   1 H        0.925     0.011     2.876     2.652
     6   6 C        2.914    -0.069    29.718     8.939
     7   1 H        0.925    -0.008     3.209     2.801
     8   6 C        2.919    -0.038    28.947     8.823
     9   1 H        0.925    -0.009     3.213     2.803
    10   6 C        2.902    -0.061    29.528     8.910
    11   1 H        0.925     0.035     2.513     2.479
    12   8 O        0.858    -0.490    23.570     6.509
    13   8 O        0.930    -0.509    23.946     6.563
    14   8 O        0.929    -0.443    22.532     6.366

Wiberg/Mayer (AO) data.
largest (>0.10) Wiberg bond orders for each atom

     #   Z sym  total        # sym  WBO       # sym  WBO       # sym  WBO
 ---------------------------------------------------------------------------
     1   6 C    3.986 --     2 C    1.619     4 C    1.134     5 H    0.971
                             8 C    0.105
     2   6 C    3.992 --     1 C    1.619     6 C    1.286     7 H    0.970
     3   7 N    3.898 --    14 O    1.386    13 O    1.323    10 C    1.105
     4   6 C    3.967 --    12 O    1.595     1 C    1.134    10 C    1.127
     5   1 H    0.999 --     1 C    0.971
     6   6 C    3.982 --     8 C    1.534     2 C    1.286     9 H    0.972
     7   1 H    1.000 --     2 C    0.970
     8   6 C    3.991 --     6 C    1.534    10 C    1.322    11 H    0.963
                             1 C    0.105
     9   1 H    0.999 --     6 C    0.972
    10   6 C    3.935 --     8 C    1.322     4 C    1.127     3 N    1.105
    11   1 H    0.999 --     8 C    0.963
    12   8 O    1.940 --     4 C    1.595
    13   8 O    1.788 --     3 N    1.323    14 O    0.274
    14   8 O    1.866 --     3 N    1.386    13 O    0.274
 ---------------------------------------------------------------------------

molecular dipole:
                 x           y           z       tot (Debye)
 q only:       12.374       6.035      -5.642
   full:       12.549       6.000      -5.940      38.444

 projected vibrational frequencies (cm⁻¹)
eigval :       -0.00    -0.00    -0.00    -0.00     0.00     0.00
eigval :       15.26    94.76   217.53   223.14   362.22   385.56
eigval :      426.28   480.94   539.60   579.74   644.83   658.79
eigval :      737.83   768.51   801.84   838.45   847.61   901.61
eigval :      918.48  1059.11  1088.33  1161.72  1184.23  1214.07
eigval :     1299.24  1347.16  1372.98  1451.72  1510.82  1536.82
eigval :     1606.29  1640.41  2999.20  3048.10  3055.63  3071.01

   temp. (K)  partition function   enthalpy   heat capacity  entropy
                                   cal/mol     cal/K/mol   cal/K/mol   J/K/mol
 298.15  VIB   241.                 3265.549     22.558     19.379
         ROT  0.534E+06              888.752      2.981     29.190
         INT  0.129E+09             4154.301     25.539     48.569
         TR   0.157E+28             1481.254      4.968     40.662
         TOT                        5635.5554    30.5067    89.2308   373.3416

       T/K    H(0)-H(T)+PV         H(T)/Eh          T*S/Eh         G(T)/Eh
   ------------------------------------------------------------------------
    298.15    0.898083E-02    0.100312E+00    0.423964E-01    0.579157E-01
   ------------------------------------------------------------------------

         :::::::::::::::::::::::::::::::::::::::::::::::::::::
         ::                  THERMODYNAMIC                  ::
         :::::::::::::::::::::::::::::::::::::::::::::::::::::
         :: total free energy         -30.086617565209 Eh   ::
         ::.................................................::
         :: total energy              -30.144533303753 Eh   ::
         :: zero point energy           0.091331333867 Eh   ::
         :: G(RRHO) w/o ZPVE           -0.033415595323 Eh   ::
         :: G(RRHO) contrib.            0.057915738544 Eh   ::
         :::::::::::::::::::::::::::::::::::::::::::::::::::::

           -------------------------------------------------
          | TOTAL ENERGY              -30.144533303753 Eh   |
          | TOTAL ENTHALPY            -30.044221140671 Eh   |
          | TOTAL FREE ENERGY         -30.086617565209 Eh   |
          | GRADIENT NORM               0.000471145491 Eh/α |
          | HOMO-LUMO GAP               2.004416815255 eV   |
           -------------------------------------------------

 * finished run on 2025/10/18 at 06:21:51.550
