   * xtb version 6.7.1 (edcfbbe) compiled by 'albert@albert-system' on 2024-07-22

   ID    Z sym.   atoms
    1    6 C      1, 2
    2   17 Cl     3, 5
    3    1 H      4
    4    8 O      6, 7

          program call               : xtb xyz.xyz --charge -1 --ohess
          :  Hamiltonian                  GFN2-xTB          :
 * total energy  :   -22.2015997 Eh     change       -0.2018297E-10 Eh
 * total energy  :   -22.2339702 Eh     change       -0.3237054E-01 Eh
 * total energy  :   -22.2382326 Eh     change       -0.4262387E-02 Eh
 * total energy  :   -22.2411650 Eh     change       -0.2932423E-02 Eh
 * total energy  :   -22.2479777 Eh     change       -0.6812708E-02 Eh
 * total energy  :   -22.2563443 Eh     change       -0.8366554E-02 Eh
 * total energy  :   -22.2645753 Eh     change       -0.8231003E-02 Eh
 * total energy  :   -22.2385315 Eh     change        0.2604376E-01 Eh
 * total energy  :   -22.2771653 Eh     change       -0.3863384E-01 Eh
 * total energy  :   -22.2725349 Eh     change        0.4630429E-02 Eh
 * total energy  :   -22.2783360 Eh     change       -0.5801095E-02 Eh
 * total energy  :   -22.2727153 Eh     change        0.5620732E-02 Eh
 * total energy  :   -22.2786450 Eh     change       -0.5929674E-02 Eh
 * total energy  :   -22.2788249 Eh     change       -0.1799713E-03 Eh
 * total energy  :   -22.2790989 Eh     change       -0.2739345E-03 Eh
 * total energy  :   -22.2791152 Eh     change       -0.1632978E-04 Eh
 * total energy  :   -22.2791305 Eh     change       -0.1530859E-04 Eh
 * total energy  :   -22.2791354 Eh     change       -0.4952299E-05 Eh
 * total energy  :   -22.2791376 Eh     change       -0.2135932E-05 Eh
   *** GEOMETRY OPTIMIZATION CONVERGED AFTER 19 ITERATIONS ***

 final structure:
================
7
 xtb: 6.7.1 (edcfbbe)
C           -0.27791832574195       -0.91309393628777        0.90804607242672
C           -0.39489580390081       -0.77663197605762       -0.73007131450971
Cl          -1.85181694062699       -1.25050891698746        1.63655722175080
H            0.38096916411110       -1.74563782783893        1.16581698424551
Cl           0.40425470106029        0.54116692137805        1.64765608754336
O           -1.07521297408877        0.14772431678359       -1.13317435793953
O            0.24733417918723       -1.66192358098974       -1.27905869351725

          :  Hamiltonian                  GFN2-xTB          :
         :: gradient norm              0.000991205495 Eh/a0 ::
         :: HOMO-LUMO gap              4.642699008386 eV    ::
         :: SCC energy               -22.377208858321 Eh    ::
         :: -> dispersion             -0.006220192556 Eh    ::
         :: repulsion energy           0.098071272679 Eh    ::

    * Orbital Energies and Occupations

         #    Occupation            Energy/Eh            Energy/eV
      -------------------------------------------------------------
         1        2.0000           -0.9313806             -25.3442
       ...           ...                  ...                  ...
         6        2.0000           -0.4189156             -11.3993
         7        2.0000           -0.3888374             -10.5808
         8        2.0000           -0.3877532             -10.5513
         9        2.0000           -0.3831007             -10.4247
        10        2.0000           -0.3563080              -9.6956
        11        2.0000           -0.3380797              -9.1996
        12        2.0000           -0.3056702              -8.3177
        13        2.0000           -0.2970139              -8.0822
        14        2.0000           -0.2885166              -7.8509
        15        2.0000           -0.2880930              -7.8394
        16        2.0000           -0.2515679              -6.8455
        17        2.0000           -0.2390485              -6.5048
        18        2.0000           -0.2172665              -5.9121 (HOMO)
        19                         -0.0466506              -1.2694 (LUMO)
        20                         -0.0408320              -1.1111
        21                          0.0227687               0.6196
        22                          0.1289430               3.5087
        23                          0.1458326               3.9683
        24                          0.1506999               4.1008
        25                          0.1512206               4.1149
        26                          0.1520761               4.1382
        27                          0.1525874               4.1521
        28                          0.1531426               4.1672
        29                          0.1544859               4.2038
       ...                                ...                  ...
        35                          0.9191549              25.0115
      -------------------------------------------------------------
                  HL-Gap            0.1706159 Eh            4.6427 eV

     #   Z          covCN         q      C6AA      α(0)
     1   6 C        3.653     0.099    19.229     6.297
     2   6 C        2.680     0.383    20.511     7.411
     3  17 Cl       1.062    -0.227   106.364    15.778
     4   1 H        0.925     0.038     2.474     2.460
     5  17 Cl       1.060    -0.228   106.394    15.781
     6   8 O        0.856    -0.520    24.244     6.602
     7   8 O        0.857    -0.545    24.802     6.677

Wiberg/Mayer (AO) data.
largest (>0.10) Wiberg bond orders for each atom

     #   Z sym  total        # sym  WBO       # sym  WBO       # sym  WBO
 ---------------------------------------------------------------------------
     1   6 C    3.772 --     4 H    0.980     3 Cl   0.941     5 Cl   0.940
                             2 C    0.761
     2   6 C    3.948 --     6 O    1.603     7 O    1.561     1 C    0.761
     3  17 Cl   1.022 --     1 C    0.941
     4   1 H    0.999 --     1 C    0.980
     5  17 Cl   1.022 --     1 C    0.940
     6   8 O    1.947 --     2 C    1.603     7 O    0.249
     7   8 O    1.924 --     2 C    1.561     6 O    0.249
 ---------------------------------------------------------------------------

molecular dipole:
                 x           y           z       tot (Debye)
 q only:        1.113       1.010       0.743
   full:        1.187       0.921       0.595       4.106

 projected vibrational frequencies (cm⁻¹)
eigval :       -0.00    -0.00    -0.00    -0.00     0.00     0.00
eigval :      -15.41   125.98   169.18   245.01   373.98   624.32
eigval :      641.85   704.36   750.93   753.35  1119.08  1183.84
eigval :     1291.47  1897.96  2944.70

   temp. (K)  partition function   enthalpy   heat capacity  entropy
                                   cal/mol     cal/K/mol   cal/K/mol   J/K/mol
 298.15  VIB   115.                 2304.221     12.938     14.729
         ROT  0.321E+06              888.752      2.981     28.177
         INT  0.369E+08             3192.973     15.918     42.906
         TR   0.140E+28             1481.254      4.968     40.434
         TOT                        4674.2268    20.8866    83.3397   348.6933

       T/K    H(0)-H(T)+PV         H(T)/Eh          T*S/Eh         G(T)/Eh
   ------------------------------------------------------------------------
    298.15    0.744885E-02    0.367037E-01    0.395974E-01   -0.289364E-02
   ------------------------------------------------------------------------

         :::::::::::::::::::::::::::::::::::::::::::::::::::::
         ::                  THERMODYNAMIC                  ::
         :::::::::::::::::::::::::::::::::::::::::::::::::::::
         :: total free energy         -22.282031225128 Eh   ::
         ::.................................................::
         :: total energy              -22.279137585692 Eh   ::
         :: zero point energy           0.029254887584 Eh   ::
         :: G(RRHO) w/o ZPVE           -0.032148527020 Eh   ::
         :: G(RRHO) contrib.           -0.002893639436 Eh   ::
         :::::::::::::::::::::::::::::::::::::::::::::::::::::

           -------------------------------------------------
          | TOTAL ENERGY              -22.279137585692 Eh   |
          | TOTAL ENTHALPY            -22.242433843530 Eh   |
          | TOTAL FREE ENERGY         -22.282031225128 Eh   |
          | GRADIENT NORM               0.000990880405 Eh/α |
          | HOMO-LUMO GAP               4.642695907776 eV   |
           -------------------------------------------------

 * finished run on 2025/10/18 at 21:14:36.516
