   * xtb version 6.7.1 (edcfbbe) compiled by 'albert@albert-system' on 2024-07-22

   ID    Z sym.   atoms
    1    6 C      1, 2
    2    8 O      3, 6
    3    1 H      4, 5, 7-9

          program call               : xtb xyz.xyz --alpb water --charge -1 --ohess
      * Solvation model:               ALPB
        Solvent                        water
        Solvent mass                       1.8000E+01 g/mol
          :  Hamiltonian                  GFN2-xTB          :
 * total energy  :   -15.1697060 Eh     change       -0.6186163E-10 Eh
 * total energy  :   -15.1727675 Eh     change       -0.3061573E-02 Eh
 * total energy  :   -15.1730924 Eh     change       -0.3248637E-03 Eh
 * total energy  :   -15.1731349 Eh     change       -0.4251561E-04 Eh
 * total energy  :   -15.1731748 Eh     change       -0.3990952E-04 Eh
 * total energy  :   -15.1731920 Eh     change       -0.1719696E-04 Eh
 * total energy  :   -15.1731987 Eh     change       -0.6728703E-05 Eh
 * total energy  :   -15.1731993 Eh     change       -0.5361387E-06 Eh
   *** GEOMETRY OPTIMIZATION CONVERGED AFTER 8 ITERATIONS ***

 final structure:
================
9
 xtb: 6.7.1 (edcfbbe)
C           -7.04683825503549       -4.53726521162574        1.57704804521154
C           -8.05282648136401       -3.38776142373033        1.58886138091741
O           -7.54437780564693       -5.73392335249902        1.01164186461385
H           -6.13836865187424       -4.23557114009623        1.03361621320612
H           -6.78225728914593       -4.84404890120527        2.59548299103250
O           -7.67424948479229       -5.62174811159252       -0.41547487034212
H           -8.36218598249569       -3.19610500553452        0.56348684886555
H           -8.92758516034634       -3.67008242326830        2.16849485364765
H           -7.59052888929908       -2.50076343044806        2.01036267284750

          :  Hamiltonian                  GFN2-xTB          :
         :: gradient norm              0.000242753218 Eh/a0 ::
         :: HOMO-LUMO gap              6.812001768338 eV    ::
         :: SCC energy               -15.278110214859 Eh    ::
         :: -> dispersion             -0.003840683819 Eh    ::
         :: -> Gsolv                  -0.140487503241 Eh    ::
         :: repulsion energy           0.104910937158 Eh    ::

    * Orbital Energies and Occupations

         #    Occupation            Energy/Eh            Energy/eV
      -------------------------------------------------------------
         1        2.0000           -0.6661895             -18.1279
         2        2.0000           -0.6122682             -16.6607
         3        2.0000           -0.5897448             -16.0478
         4        2.0000           -0.5690148             -15.4837
         5        2.0000           -0.5212521             -14.1840
         6        2.0000           -0.5194553             -14.1351
         7        2.0000           -0.4982749             -13.5587
         8        2.0000           -0.4676013             -12.7241
         9        2.0000           -0.4570950             -12.4382
        10        2.0000           -0.4288728             -11.6702
        11        2.0000           -0.4188561             -11.3977
        12        2.0000           -0.3341448              -9.0925
        13        2.0000           -0.3155672              -8.5870 (HOMO)
        14                         -0.0652307              -1.7750 (LUMO)
        15                          0.0934962               2.5442
        16                          0.1237403               3.3671
        17                          0.1624063               4.4193
        18                          0.1725179               4.6945
        19                          0.1902514               5.1770
        20                          0.2565473               6.9810
        21                          0.2826411               7.6911
      -------------------------------------------------------------
                  HL-Gap            0.2503365 Eh            6.8120 eV

     #   Z          covCN         q      C6AA      α(0)
     1   6 C        3.673     0.113    18.946     6.238
     2   6 C        3.750    -0.112    22.699     6.795
     3   8 O        1.769    -0.382    20.473     6.110
     4   1 H        0.923     0.007     2.946     2.684
     5   1 H        0.924     0.027     2.634     2.538
     6   8 O        0.921    -0.796    31.407     7.516
     7   1 H        0.925     0.041     2.440     2.443
     8   1 H        0.925     0.046     2.364     2.405
     9   1 H        0.925     0.056     2.249     2.345

Wiberg/Mayer (AO) data.
largest (>0.10) Wiberg bond orders for each atom

     #   Z sym  total        # sym  WBO       # sym  WBO       # sym  WBO
 ---------------------------------------------------------------------------
     1   6 C    3.954 --     2 C    1.007     3 O    0.990     4 H    0.971
                             5 H    0.966
     2   6 C    3.996 --     1 C    1.007     8 H    0.988     7 H    0.987
                             9 H    0.986
     3   8 O    1.987 --     1 C    0.990     6 O    0.946
     4   1 H    1.000 --     1 C    0.971
     5   1 H    0.999 --     1 C    0.966
     6   8 O    0.995 --     3 O    0.946
     7   1 H    0.998 --     2 C    0.987
     8   1 H    0.998 --     2 C    0.988
     9   1 H    0.997 --     2 C    0.986
 ---------------------------------------------------------------------------

molecular dipole:
                 x           y           z       tot (Debye)
 q only:       14.533      11.209       0.486
   full:       14.603      11.232       0.537      46.846

 projected vibrational frequencies (cm⁻¹)
eigval :       -0.00    -0.00    -0.00     0.00     0.00     0.00
eigval :      121.90   192.55   338.38   469.21   810.03   895.37
eigval :     1000.40  1065.64  1088.60  1167.08  1268.89  1316.69
eigval :     1372.42  1435.93  1461.72  1496.96  2830.78  2894.70
eigval :     3030.76  3035.05  3041.69

   temp. (K)  partition function   enthalpy   heat capacity  entropy
                                   cal/mol     cal/K/mol   cal/K/mol   J/K/mol
 298.15  VIB   5.50                 1366.735      9.690      7.959
         ROT  0.416E+05              888.752      2.981     24.118
         INT  0.229E+06             2255.487     12.671     32.077
         TR   0.462E+27             1481.254      4.968     38.230
         TOT                        3736.7413    17.6395    70.3073   294.1659

       T/K    H(0)-H(T)+PV         H(T)/Eh          T*S/Eh         G(T)/Eh
   ------------------------------------------------------------------------
    298.15    0.595488E-02    0.750625E-01    0.334053E-01    0.416572E-01
   ------------------------------------------------------------------------

         :::::::::::::::::::::::::::::::::::::::::::::::::::::
         ::                  THERMODYNAMIC                  ::
         :::::::::::::::::::::::::::::::::::::::::::::::::::::
         :: total free energy         -15.131542032059 Eh   ::
         ::.................................................::
         :: total energy              -15.173199277307 Eh   ::
         :: zero point energy           0.069107652342 Eh   ::
         :: G(RRHO) w/o ZPVE           -0.027450407095 Eh   ::
         :: G(RRHO) contrib.            0.041657245247 Eh   ::
         :::::::::::::::::::::::::::::::::::::::::::::::::::::

           -------------------------------------------------
          | TOTAL ENERGY              -15.173199277307 Eh   |
          | TOTAL ENTHALPY            -15.098136748595 Eh   |
          | TOTAL FREE ENERGY         -15.131542032059 Eh   |
          | GRADIENT NORM               0.000242669618 Eh/α |
          | HOMO-LUMO GAP               6.812002537211 eV   |
           -------------------------------------------------

 * finished run on 2025/10/18 at 02:41:38.219
