   * xtb version 6.7.1 (edcfbbe) compiled by 'albert@albert-system' on 2024-07-22

   ID    Z sym.   atoms
    1    6 C      1, 2, 4, 6, 8, 10, 12
    2    1 H      3, 5, 7, 9, 11
    3    8 O      13, 14

          program call               : xtb xyz.xyz --alpb water --charge -1 --ohess
      * Solvation model:               ALPB
        Solvent                        water
        Solvent mass                       1.8000E+01 g/mol
          :  Hamiltonian                  GFN2-xTB          :
 * total energy  :   -25.9857474 Eh     change       -0.1078462E-09 Eh
 * total energy  :   -25.9878087 Eh     change       -0.2061299E-02 Eh
 * total energy  :   -25.9879342 Eh     change       -0.1254461E-03 Eh
 * total energy  :   -25.9879453 Eh     change       -0.1110320E-04 Eh
 * total energy  :   -25.9879187 Eh     change        0.2655346E-04 Eh
 * total energy  :   -25.9879479 Eh     change       -0.2917642E-04 Eh
 * total energy  :   -25.9879506 Eh     change       -0.2721258E-05 Eh
   *** GEOMETRY OPTIMIZATION CONVERGED AFTER 7 ITERATIONS ***

 final structure:
================
14
 xtb: 6.7.1 (edcfbbe)
C           -4.17412133517046       -1.98634737165492        1.99357233577057
C           -3.84029018417193       -2.43707166932949        0.72955486408115
H           -6.97877040126783       -3.77226802211263        2.51593779572414
C           -5.30720782760326       -2.47030815850258        2.63507984862542
H           -3.57248383227351       -1.25389206242230        2.51452408246464
C           -4.63828312638544       -3.37651214304971        0.09682601740105
H           -2.95732116861932       -2.05443130445986        0.23971786300110
C           -5.76998842020365       -3.86389186720234        0.73037861025484
H           -4.37829864362016       -3.72868747503215       -0.88993305718175
C           -6.10236417332148       -3.41206305784251        1.99438591625817
H           -6.39492393924882       -4.59608617857661        0.24115365896430
C           -5.67340642029585       -1.97429462752814        4.02474108371659
O           -4.91843506985715       -1.12297882612371        4.55138016992061
O           -6.70863445796114       -2.44607223616306        4.55180881099918

          :  Hamiltonian                  GFN2-xTB          :
         :: gradient norm              0.000650493512 Eh/a0 ::
         :: HOMO-LUMO gap              3.217490448818 eV    ::
         :: SCC energy               -26.351024157401 Eh    ::
         :: -> dispersion             -0.012147436925 Eh    ::
         :: -> Gsolv                  -0.115222541367 Eh    ::
         :: repulsion energy           0.363073551438 Eh    ::

    * Orbital Energies and Occupations

         #    Occupation            Energy/Eh            Energy/eV
      -------------------------------------------------------------
         1        2.0000           -0.6610684             -17.9886
       ...           ...                  ...                  ...
        11        2.0000           -0.4968498             -13.5200
        12        2.0000           -0.4946919             -13.4613
        13        2.0000           -0.4829754             -13.1424
        14        2.0000           -0.4722734             -12.8512
        15        2.0000           -0.4690429             -12.7633
        16        2.0000           -0.4672806             -12.7154
        17        2.0000           -0.4307232             -11.7206
        18        2.0000           -0.4149348             -11.2910
        19        2.0000           -0.3998780             -10.8812
        20        2.0000           -0.3960381             -10.7767
        21        2.0000           -0.3896238             -10.6022
        22        2.0000           -0.3717287             -10.1153
        23        2.0000           -0.3535694              -9.6211 (HOMO)
        24                         -0.2353288              -6.4036 (LUMO)
        25                         -0.2178587              -5.9282
        26                         -0.1496116              -4.0711
        27                         -0.0682572              -1.8574
        28                          0.1159077               3.1540
        29                          0.1333146               3.6277
        30                          0.1679578               4.5704
        31                          0.1744363               4.7467
        32                          0.2022769               5.5042
        33                          0.2056423               5.5958
        34                          0.3923424              10.6762
       ...                                ...                  ...
        41                          0.6972409              18.9729
      -------------------------------------------------------------
                  HL-Gap            0.1182406 Eh            3.2175 eV

     #   Z          covCN         q      C6AA      α(0)
     1   6 C        2.923    -0.026    28.662     8.780
     2   6 C        2.919    -0.038    28.947     8.823
     3   1 H        0.925     0.023     2.691     2.565
     4   6 C        2.969    -0.047    29.151     8.856
     5   1 H        0.925     0.023     2.691     2.565
     6   6 C        2.921    -0.037    28.919     8.819
     7   1 H        0.926     0.045     2.380     2.413
     8   6 C        2.919    -0.038    28.947     8.823
     9   1 H        0.926     0.054     2.272     2.357
    10   6 C        2.923    -0.026    28.662     8.780
    11   1 H        0.926     0.045     2.380     2.413
    12   6 C        2.691     0.358    20.930     7.487
    13   8 O        0.856    -0.668    27.839     7.074
    14   8 O        0.856    -0.668    27.839     7.074

Wiberg/Mayer (AO) data.
largest (>0.10) Wiberg bond orders for each atom

     #   Z sym  total        # sym  WBO       # sym  WBO       # sym  WBO
 ---------------------------------------------------------------------------
     1   6 C    3.991 --     2 C    1.448     4 C    1.406     5 H    0.968
                             8 C    0.109
     2   6 C    3.990 --     1 C    1.448     6 C    1.435     7 H    0.969
                            10 C    0.109
     3   1 H    0.999 --    10 C    0.968
     4   6 C    3.982 --     1 C    1.406    10 C    1.406    12 C    0.947
                             6 C    0.109
     5   1 H    0.999 --     1 C    0.968
     6   6 C    3.990 --     2 C    1.435     8 C    1.435     9 H    0.969
                             4 C    0.109
     7   1 H    0.997 --     2 C    0.969
     8   6 C    3.990 --    10 C    1.448     6 C    1.435    11 H    0.969
                             1 C    0.109
     9   1 H    0.997 --     6 C    0.969
    10   6 C    3.991 --     8 C    1.448     4 C    1.406     3 H    0.968
                             2 C    0.109
    11   1 H    0.997 --     8 C    0.969
    12   6 C    3.928 --    13 O    1.472    14 O    1.472     4 C    0.947
    13   8 O    1.773 --    12 C    1.472    14 O    0.214
    14   8 O    1.773 --    12 C    1.472    13 O    0.214
 ---------------------------------------------------------------------------

molecular dipole:
                 x           y           z       tot (Debye)
 q only:       11.129       3.179      -9.139
   full:       11.116       3.196      -9.091      37.393

 projected vibrational frequencies (cm⁻¹)
eigval :       -0.00    -0.00    -0.00     0.00     0.00     0.00
eigval :       28.37   141.90   191.85   362.34   367.43   399.53
eigval :      508.87   587.09   638.99   642.09   698.59   786.99
eigval :      791.73   879.47   905.15   924.57   931.41   981.33
eigval :     1075.64  1107.11  1155.18  1173.47  1189.91  1272.40
eigval :     1324.80  1326.04  1433.06  1460.67  1590.73  1596.08
eigval :     1627.19  3061.91  3063.32  3073.09  3076.75  3090.97

   temp. (K)  partition function   enthalpy   heat capacity  entropy
                                   cal/mol     cal/K/mol   cal/K/mol   J/K/mol
 298.15  VIB   67.2                 2799.812     20.107     16.087
         ROT  0.198E+06              888.752      2.981     27.220
         INT  0.133E+08             3688.564     23.088     43.307
         TR   0.129E+28             1481.254      4.968     40.271
         TOT                        5169.8179    28.0558    83.5777   349.6891

       T/K    H(0)-H(T)+PV         H(T)/Eh          T*S/Eh         G(T)/Eh
   ------------------------------------------------------------------------
    298.15    0.823863E-02    0.107262E+00    0.397105E-01    0.675511E-01
   ------------------------------------------------------------------------

         :::::::::::::::::::::::::::::::::::::::::::::::::::::
         ::                  THERMODYNAMIC                  ::
         :::::::::::::::::::::::::::::::::::::::::::::::::::::
         :: total free energy         -25.920399535391 Eh   ::
         ::.................................................::
         :: total energy              -25.987950605859 Eh   ::
         :: zero point energy           0.099022905694 Eh   ::
         :: G(RRHO) w/o ZPVE           -0.031471835226 Eh   ::
         :: G(RRHO) contrib.            0.067551070468 Eh   ::
         :::::::::::::::::::::::::::::::::::::::::::::::::::::

           -------------------------------------------------
          | TOTAL ENERGY              -25.987950605859 Eh   |
          | TOTAL ENTHALPY            -25.880689070985 Eh   |
          | TOTAL FREE ENERGY         -25.920399535391 Eh   |
          | GRADIENT NORM               0.000650492772 Eh/α |
          | HOMO-LUMO GAP               3.217490055612 eV   |
           -------------------------------------------------

 * finished run on 2025/10/18 at 03:34:30.659
