   * xtb version 6.7.1 (edcfbbe) compiled by 'albert@albert-system' on 2024-07-22

   ID    Z sym.   atoms
    1    6 C      1, 2
    2    8 O      3, 7, 10
    3    1 H      4-6, 8, 9, 11, 12

          program call               : xtb tb_lite_results_shiftn0p2_gp159_b0_rot270_complex.xyz --ohess --chrg -1 --alpb water
      * Solvation model:               ALPB
        Solvent                        water
        Solvent mass                       1.8000E+01 g/mol
          :  Hamiltonian                  GFN2-xTB          :
 * total energy  :   -20.3221358 Eh     change       -0.5410783E-11 Eh
 * total energy  :   -20.3272681 Eh     change       -0.5132290E-02 Eh
 * total energy  :   -20.3280424 Eh     change       -0.7742688E-03 Eh
 * total energy  :   -20.3283846 Eh     change       -0.3422060E-03 Eh
 * total energy  :   -20.3289454 Eh     change       -0.5608306E-03 Eh
 * total energy  :   -20.3291717 Eh     change       -0.2262695E-03 Eh
 * total energy  :   -20.3292967 Eh     change       -0.1250429E-03 Eh
 * total energy  :   -20.3293703 Eh     change       -0.7363080E-04 Eh
 * total energy  :   -20.3294278 Eh     change       -0.5741685E-04 Eh
 * total energy  :   -20.3294691 Eh     change       -0.4131700E-04 Eh
 * total energy  :   -20.3297787 Eh     change       -0.1719148E-04 Eh
 * total energy  :   -20.3297832 Eh     change       -0.4534659E-05 Eh
 * total energy  :   -20.3298008 Eh     change       -0.1760514E-04 Eh
 * total energy  :   -20.3298074 Eh     change       -0.6527322E-05 Eh
 * total energy  :   -20.3298215 Eh     change       -0.1415742E-04 Eh
 * total energy  :   -20.3297524 Eh     change        0.6908661E-04 Eh
 * total energy  :   -20.3298330 Eh     change       -0.8055321E-04 Eh
 * total energy  :   -20.3298365 Eh     change       -0.3501273E-05 Eh
 * total energy  :   -20.3298391 Eh     change       -0.2668145E-05 Eh
   *** GEOMETRY OPTIMIZATION CONVERGED AFTER 32 ITERATIONS ***

 final structure:
================
12
 xtb: 6.7.1 (edcfbbe)
C           -5.89886903886857       -4.05877704271249        1.39620927180241
C           -6.68149377536777       -5.27423496881215        0.79364249083058
O           -6.78286836027920       -3.20041965942362        1.96646565995700
H           -5.14196557600741       -4.43229765298995        2.11577328253474
H           -5.34036045036401       -3.55444755795213        0.57280832192105
H           -6.67847013102919       -6.11053840987132        1.50765076845883
O           -7.99536133948174       -4.84003422122246        0.58532966626632
H           -6.24521196699624       -5.60248841039427       -0.15408962199424
H           -7.98025625028896       -3.98648685879302        1.13386517287463
O           -6.99310222540632       -3.56630149652153        4.53499613939690
H           -6.89304662961739       -3.41215630027947        3.54622361182847
H           -7.87725053712036       -3.24653747591999        4.73846427300237

          :  Hamiltonian                  GFN2-xTB          :
         :: gradient norm              0.000923356059 Eh/a0 ::
         :: HOMO-LUMO gap             11.534229381677 eV    ::
         :: SCC energy               -20.457575333173 Eh    ::
         :: -> dispersion             -0.005761080214 Eh    ::
         :: -> Gsolv                  -0.111273200369 Eh    ::
         :: repulsion energy           0.127736186585 Eh    ::

    * Orbital Energies and Occupations

         #    Occupation            Energy/Eh            Energy/eV
      -------------------------------------------------------------
         1        2.0000           -0.6700554             -18.2331
       ...           ...                  ...                  ...
         5        2.0000           -0.5686612             -15.4741
         6        2.0000           -0.5381338             -14.6434
         7        2.0000           -0.5302198             -14.4280
         8        2.0000           -0.5186967             -14.1145
         9        2.0000           -0.5088319             -13.8460
        10        2.0000           -0.4844320             -13.1821
        11        2.0000           -0.4715293             -12.8310
        12        2.0000           -0.4537980             -12.3485
        13        2.0000           -0.4340399             -11.8108
        14        2.0000           -0.4110062             -11.1840
        15        2.0000           -0.3968901             -10.7999
        16        2.0000           -0.3513598              -9.5610
        17        2.0000           -0.3408804              -9.2758 (HOMO)
        18                          0.0829949               2.2584 (LUMO)
        19                          0.1020144               2.7760
        20                          0.1274365               3.4677
        21                          0.1356766               3.6919
        22                          0.1458278               3.9682
        23                          0.1788012               4.8654
        24                          0.2013730               5.4796
        25                          0.2538151               6.9067
        26                          0.2746303               7.4731
        27                          0.3301212               8.9831
      -------------------------------------------------------------
                  HL-Gap            0.4238753 Eh           11.5342 eV

     #   Z          covCN         q      C6AA      α(0)
     1   6 C        3.667     0.136    18.614     6.187
     2   6 C        3.670     0.078    19.515     6.333
     3   8 O        0.857    -0.798    31.534     7.529
     4   1 H        0.922    -0.061     4.369     3.269
     5   1 H        0.921    -0.067     4.548     3.335
     6   1 H        0.923    -0.005     3.149     2.775
     7   8 O        1.647    -0.536    23.693     6.571
     8   1 H        0.924     0.003     3.014     2.715
     9   1 H        0.796     0.334     0.629     1.246
    10   8 O        1.603    -0.719    28.225     7.170
    11   1 H        0.800     0.298     0.729     1.342
    12   1 H        0.805     0.339     0.614     1.231

Wiberg/Mayer (AO) data.
largest (>0.10) Wiberg bond orders for each atom

     #   Z sym  total        # sym  WBO       # sym  WBO       # sym  WBO
 ---------------------------------------------------------------------------
     1   6 C    3.986 --     3 O    1.099     4 H    0.959     5 H    0.956
                             2 C    0.949
     2   6 C    3.962 --     7 O    1.018     8 H    0.976     6 H    0.973
                             1 C    0.949
     3   8 O    1.504 --     1 C    1.099    11 H    0.107     9 H    0.103
     4   1 H    0.996 --     1 C    0.959
     5   1 H    0.995 --     1 C    0.956
     6   1 H    1.000 --     2 C    0.973
     7   8 O    1.883 --     2 C    1.018     9 H    0.773
     8   1 H    1.000 --     2 C    0.976
     9   1 H    0.888 --     7 O    0.773     3 O    0.103
    10   8 O    1.741 --    12 H    0.885    11 H    0.803
    11   1 H    0.911 --    10 O    0.803     3 O    0.107
    12   1 H    0.885 --    10 O    0.885
 ---------------------------------------------------------------------------

molecular dipole:
                 x           y           z       tot (Debye)
 q only:       12.684       7.240      -3.831
   full:       12.908       7.210      -3.986      38.920

 projected vibrational frequencies (cm⁻¹)
eigval :       -0.00    -0.00    -0.00    -0.00     0.00     0.00
eigval :       21.48    65.28   126.61   175.49   294.56   359.94
eigval :      588.03   639.84   783.87   869.64   883.04   895.17
eigval :     1071.61  1101.17  1119.49  1165.81  1240.69  1259.56
eigval :     1332.24  1341.96  1480.80  1501.51  1552.78  2577.05
eigval :     2599.03  2651.58  2756.05  2843.99  2924.35  3618.18

   temp. (K)  partition function   enthalpy   heat capacity  entropy
                                   cal/mol     cal/K/mol   cal/K/mol   J/K/mol
 298.15  VIB   282.                 2811.365     15.921     18.326
         ROT  0.143E+06              888.752      2.981     26.577
         INT  0.404E+08             3700.117     18.902     44.903
         TR   0.680E+27             1481.254      4.968     39.001
         TOT                        5181.3711    23.8704    83.9034   351.0519

       T/K    H(0)-H(T)+PV         H(T)/Eh          T*S/Eh         G(T)/Eh
   ------------------------------------------------------------------------
    298.15    0.825704E-02    0.990211E-01    0.398652E-01    0.591559E-01
   ------------------------------------------------------------------------

         :::::::::::::::::::::::::::::::::::::::::::::::::::::
         ::                  THERMODYNAMIC                  ::
         :::::::::::::::::::::::::::::::::::::::::::::::::::::
         :: total free energy         -20.270683269412 Eh   ::
         ::.................................................::
         :: total energy              -20.329839147966 Eh   ::
         :: zero point energy           0.090764053819 Eh   ::
         :: G(RRHO) w/o ZPVE           -0.031608175265 Eh   ::
         :: G(RRHO) contrib.            0.059155878554 Eh   ::
         :::::::::::::::::::::::::::::::::::::::::::::::::::::

           -------------------------------------------------
          | TOTAL ENERGY              -20.329839147966 Eh   |
          | TOTAL ENTHALPY            -20.230818053738 Eh   |
          | TOTAL FREE ENERGY         -20.270683269412 Eh   |
          | GRADIENT NORM               0.000923255747 Eh/α |
          | HOMO-LUMO GAP              11.534234808836 eV   |
           -------------------------------------------------

 * finished run on 2025/10/18 at 02:55:04.027
normal termination of xtb
