   * xtb version 6.7.1 (edcfbbe) compiled by 'albert@albert-system' on 2024-07-22

   ID    Z sym.   atoms
    1    6 C      1, 2
    2    8 O      3, 7, 10
    3    1 H      4-6, 8, 9, 11, 12

          program call               : xtb tb_lite_results_shiftn0p15_gp159_b0_rot270_complex.xyz --ohess --chrg -1 --alpb water
      * Solvation model:               ALPB
        Solvent                        water
        Solvent mass                       1.8000E+01 g/mol
          :  Hamiltonian                  GFN2-xTB          :
 * total energy  :   -20.3225427 Eh     change       -0.7720047E-11 Eh
 * total energy  :   -20.3271909 Eh     change       -0.4648267E-02 Eh
 * total energy  :   -20.3279575 Eh     change       -0.7665510E-03 Eh
 * total energy  :   -20.3283496 Eh     change       -0.3921340E-03 Eh
 * total energy  :   -20.3289800 Eh     change       -0.6303682E-03 Eh
 * total energy  :   -20.3291822 Eh     change       -0.2022233E-03 Eh
 * total energy  :   -20.3292926 Eh     change       -0.1103889E-03 Eh
 * total energy  :   -20.3293787 Eh     change       -0.8611633E-04 Eh
 * total energy  :   -20.3294253 Eh     change       -0.4653051E-04 Eh
 * total energy  :   -20.3294739 Eh     change       -0.4862408E-04 Eh
 * total energy  :   -20.3297823 Eh     change       -0.7272364E-05 Eh
 * total energy  :   -20.3297949 Eh     change       -0.1260920E-04 Eh
 * total energy  :   -20.3298014 Eh     change       -0.6522806E-05 Eh
 * total energy  :   -20.3298092 Eh     change       -0.7728542E-05 Eh
 * total energy  :   -20.3298155 Eh     change       -0.6325924E-05 Eh
 * total energy  :   -20.3298229 Eh     change       -0.7442618E-05 Eh
 * total energy  :   -20.3298258 Eh     change       -0.2880942E-05 Eh
 * total energy  :   -20.3298332 Eh     change       -0.7348011E-05 Eh
 * total energy  :   -20.3298372 Eh     change       -0.4067432E-05 Eh
   *** GEOMETRY OPTIMIZATION CONVERGED AFTER 32 ITERATIONS ***

 final structure:
================
12
 xtb: 6.7.1 (edcfbbe)
C           -5.91385240842406       -4.03439566193873        1.39254163875087
C           -6.66830333380355       -5.27610529015370        0.80472693143903
O           -6.81444153678220       -3.20429431346035        1.97823573718780
H           -5.13270112726669       -4.38270271267503        2.09870576188005
H           -5.38677798271486       -3.51375635466133        0.55900457165333
H           -6.61527058584893       -6.11499638767072        1.51367370882327
O           -8.00158112982452       -4.88880210044596        0.63450302730094
H           -6.24580759458181       -5.58357790059568       -0.15616354361253
H           -7.99962969140237       -4.03358483776999        1.18255582292495
O           -6.98855553604069       -3.58909984619748        4.54806219905752
H           -6.90227471321871       -3.42961164945188        3.55918446138587
H           -7.86682798623603       -3.26156034518878        4.76707732534468

          :  Hamiltonian                  GFN2-xTB          :
         :: gradient norm              0.000948550131 Eh/a0 ::
         :: HOMO-LUMO gap             11.541774792463 eV    ::
         :: SCC energy               -20.457404288599 Eh    ::
         :: -> dispersion             -0.005764648318 Eh    ::
         :: -> Gsolv                  -0.111219409320 Eh    ::
         :: repulsion energy           0.127567062639 Eh    ::

    * Orbital Energies and Occupations

         #    Occupation            Energy/Eh            Energy/eV
      -------------------------------------------------------------
         1        2.0000           -0.6698501             -18.2276
       ...           ...                  ...                  ...
         5        2.0000           -0.5685936             -15.4722
         6        2.0000           -0.5380849             -14.6420
         7        2.0000           -0.5302517             -14.4289
         8        2.0000           -0.5187417             -14.1157
         9        2.0000           -0.5087609             -13.8441
        10        2.0000           -0.4845032             -13.1840
        11        2.0000           -0.4715395             -12.8312
        12        2.0000           -0.4539493             -12.3526
        13        2.0000           -0.4337564             -11.8031
        14        2.0000           -0.4110935             -11.1864
        15        2.0000           -0.3966258             -10.7927
        16        2.0000           -0.3517282              -9.5710
        17        2.0000           -0.3411198              -9.2823 (HOMO)
        18                          0.0830326               2.2594 (LUMO)
        19                          0.1014295               2.7600
        20                          0.1273646               3.4658
        21                          0.1358309               3.6961
        22                          0.1454806               3.9587
        23                          0.1789543               4.8696
        24                          0.2012324               5.4758
        25                          0.2539278               6.9097
        26                          0.2745998               7.4722
        27                          0.3296640               8.9706
      -------------------------------------------------------------
                  HL-Gap            0.4241524 Eh           11.5418 eV

     #   Z          covCN         q      C6AA      α(0)
     1   6 C        3.667     0.136    18.618     6.187
     2   6 C        3.670     0.078    19.514     6.333
     3   8 O        0.857    -0.797    31.507     7.526
     4   1 H        0.922    -0.061     4.369     3.269
     5   1 H        0.921    -0.067     4.541     3.333
     6   1 H        0.923    -0.005     3.154     2.777
     7   8 O        1.647    -0.537    23.707     6.573
     8   1 H        0.924     0.002     3.020     2.718
     9   1 H        0.796     0.334     0.629     1.247
    10   8 O        1.603    -0.719    28.214     7.169
    11   1 H        0.800     0.297     0.730     1.342
    12   1 H        0.805     0.339     0.614     1.231

Wiberg/Mayer (AO) data.
largest (>0.10) Wiberg bond orders for each atom

     #   Z sym  total        # sym  WBO       # sym  WBO       # sym  WBO
 ---------------------------------------------------------------------------
     1   6 C    3.986 --     3 O    1.100     4 H    0.959     5 H    0.957
                             2 C    0.948
     2   6 C    3.963 --     7 O    1.018     8 H    0.976     6 H    0.973
                             1 C    0.948
     3   8 O    1.506 --     1 C    1.100    11 H    0.107     9 H    0.105
     4   1 H    0.996 --     1 C    0.959
     5   1 H    0.995 --     1 C    0.957
     6   1 H    1.000 --     2 C    0.973
     7   8 O    1.883 --     2 C    1.018     9 H    0.771
     8   1 H    1.000 --     2 C    0.976
     9   1 H    0.889 --     7 O    0.771     3 O    0.105
    10   8 O    1.741 --    12 H    0.884    11 H    0.804
    11   1 H    0.912 --    10 O    0.804     3 O    0.107
    12   1 H    0.885 --    10 O    0.884
 ---------------------------------------------------------------------------

molecular dipole:
                 x           y           z       tot (Debye)
 q only:       12.725       7.277      -3.850
   full:       12.951       7.260      -4.011      39.091

 projected vibrational frequencies (cm⁻¹)
eigval :       -0.00    -0.00    -0.00     0.00     0.00     0.00
eigval :       26.64    59.82   127.54   239.41   294.83   362.64
eigval :      599.90   642.51   786.92   870.18   887.60   895.30
eigval :     1071.96  1101.75  1119.70  1165.79  1241.86  1259.36
eigval :     1332.46  1342.10  1480.34  1502.93  1556.91  2564.06
eigval :     2601.76  2653.75  2757.72  2843.96  2923.67  3611.03

   temp. (K)  partition function   enthalpy   heat capacity  entropy
                                   cal/mol     cal/K/mol   cal/K/mol   J/K/mol
 298.15  VIB   204.                 2739.879     15.753     17.631
         ROT  0.143E+06              888.752      2.981     26.576
         INT  0.292E+08             3628.632     18.734     44.207
         TR   0.680E+27             1481.254      4.968     39.001
         TOT                        5109.8857    23.7024    83.2071   348.1385

       T/K    H(0)-H(T)+PV         H(T)/Eh          T*S/Eh         G(T)/Eh
   ------------------------------------------------------------------------
    298.15    0.814312E-02    0.990975E-01    0.395344E-01    0.595632E-01
   ------------------------------------------------------------------------

         :::::::::::::::::::::::::::::::::::::::::::::::::::::
         ::                  THERMODYNAMIC                  ::
         :::::::::::::::::::::::::::::::::::::::::::::::::::::
         :: total free energy         -20.270274052915 Eh   ::
         ::.................................................::
         :: total energy              -20.329837225914 Eh   ::
         :: zero point energy           0.090954425362 Eh   ::
         :: G(RRHO) w/o ZPVE           -0.031391252363 Eh   ::
         :: G(RRHO) contrib.            0.059563172999 Eh   ::
         :::::::::::::::::::::::::::::::::::::::::::::::::::::

           -------------------------------------------------
          | TOTAL ENERGY              -20.329837225914 Eh   |
          | TOTAL ENTHALPY            -20.230739679315 Eh   |
          | TOTAL FREE ENERGY         -20.270274052915 Eh   |
          | GRADIENT NORM               0.000948243187 Eh/α |
          | HOMO-LUMO GAP              11.541774161325 eV   |
           -------------------------------------------------

 * finished run on 2025/10/18 at 02:55:02.388
normal termination of xtb
