   * xtb version 6.7.1 (edcfbbe) compiled by 'albert@albert-system' on 2024-07-22

   ID    Z sym.   atoms
    1    6 C      1, 2
    2    8 O      3, 7, 10
    3    1 H      4-6, 8, 9, 11, 12

          program call               : xtb tb_lite_results_shiftn0p2_gp158_b0_rot270_complex.xyz --ohess --chrg -1 --alpb water
      * Solvation model:               ALPB
        Solvent                        water
        Solvent mass                       1.8000E+01 g/mol
          :  Hamiltonian                  GFN2-xTB          :
 * total energy  :   -20.3225336 Eh     change       -0.7986500E-11 Eh
 * total energy  :   -20.3275429 Eh     change       -0.5009266E-02 Eh
 * total energy  :   -20.3283424 Eh     change       -0.7994981E-03 Eh
 * total energy  :   -20.3287124 Eh     change       -0.3700439E-03 Eh
 * total energy  :   -20.3292179 Eh     change       -0.5055134E-03 Eh
 * total energy  :   -20.3293766 Eh     change       -0.1586886E-03 Eh
 * total energy  :   -20.3294930 Eh     change       -0.1163988E-03 Eh
 * total energy  :   -20.3295290 Eh     change       -0.3601560E-04 Eh
 * total energy  :   -20.3295537 Eh     change       -0.2471452E-04 Eh
 * total energy  :   -20.3295682 Eh     change       -0.1446114E-04 Eh
 * total energy  :   -20.3297827 Eh     change       -0.7595824E-05 Eh
 * total energy  :   -20.3297907 Eh     change       -0.7957038E-05 Eh
 * total energy  :   -20.3297983 Eh     change       -0.7603624E-05 Eh
 * total energy  :   -20.3298053 Eh     change       -0.7002571E-05 Eh
 * total energy  :   -20.3298132 Eh     change       -0.7981506E-05 Eh
 * total energy  :   -20.3298240 Eh     change       -0.1079436E-04 Eh
 * total energy  :   -20.3298340 Eh     change       -0.9937138E-05 Eh
 * total energy  :   -20.3298441 Eh     change       -0.1014918E-04 Eh
 * total energy  :   -20.3298485 Eh     change       -0.4364901E-05 Eh
   *** GEOMETRY OPTIMIZATION CONVERGED AFTER 27 ITERATIONS ***

 final structure:
================
12
 xtb: 6.7.1 (edcfbbe)
C           -5.89943128656944       -3.94933836891486        1.22527263976295
C           -6.60533619689744       -5.29406688029172        0.84540909096752
O           -6.72108578168563       -3.22856161725211        2.03110514224966
H           -4.92200983989583       -4.17148481830785        1.70009942070371
H           -5.68199723602872       -3.38714972346014        0.28648952647996
H           -6.28309886470584       -6.09147131675103        1.53176077966076
O           -7.98147838303160       -5.07707561386595        0.99150604493794
H           -6.38425070192960       -5.58803694839920       -0.18512714911182
H           -7.96166837299780       -4.21937765374165        1.53081840784739
O           -6.14061456780895       -3.54958309168546        4.54538434745802
H           -6.34987976780073       -3.41008790338893        3.57047705958071
H           -6.97549601651070       -3.38197860813674        4.99516993773670

          :  Hamiltonian                  GFN2-xTB          :
         :: gradient norm              0.000894011183 Eh/a0 ::
         :: HOMO-LUMO gap             11.506601518353 eV    ::
         :: SCC energy               -20.457205284903 Eh    ::
         :: -> dispersion             -0.005761910431 Eh    ::
         :: -> Gsolv                  -0.111349006406 Eh    ::
         :: repulsion energy           0.127356790037 Eh    ::

    * Orbital Energies and Occupations

         #    Occupation            Energy/Eh            Energy/eV
      -------------------------------------------------------------
         1        2.0000           -0.6701891             -18.2368
       ...           ...                  ...                  ...
         5        2.0000           -0.5687156             -15.4755
         6        2.0000           -0.5381731             -14.6444
         7        2.0000           -0.5301258             -14.4255
         8        2.0000           -0.5183911             -14.1061
         9        2.0000           -0.5088326             -13.8460
        10        2.0000           -0.4843400             -13.1796
        11        2.0000           -0.4714809             -12.8296
        12        2.0000           -0.4536863             -12.3454
        13        2.0000           -0.4343756             -11.8200
        14        2.0000           -0.4107459             -11.1770
        15        2.0000           -0.3972747             -10.8104
        16        2.0000           -0.3509978              -9.5511
        17        2.0000           -0.3407156              -9.2713 (HOMO)
        18                          0.0821442               2.2353 (LUMO)
        19                          0.1022151               2.7814
        20                          0.1273335               3.4649
        21                          0.1344082               3.6574
        22                          0.1453905               3.9563
        23                          0.1782601               4.8507
        24                          0.2008567               5.4656
        25                          0.2523931               6.8680
        26                          0.2740308               7.4568
        27                          0.3291551               8.9568
      -------------------------------------------------------------
                  HL-Gap            0.4228598 Eh           11.5066 eV

     #   Z          covCN         q      C6AA      α(0)
     1   6 C        3.667     0.136    18.610     6.186
     2   6 C        3.670     0.078    19.522     6.334
     3   8 O        0.857    -0.799    31.553     7.531
     4   1 H        0.922    -0.061     4.370     3.269
     5   1 H        0.921    -0.067     4.547     3.335
     6   1 H        0.923    -0.005     3.142     2.772
     7   8 O        1.647    -0.536    23.676     6.568
     8   1 H        0.924     0.003     3.003     2.710
     9   1 H        0.797     0.334     0.628     1.245
    10   8 O        1.603    -0.720    28.244     7.172
    11   1 H        0.800     0.298     0.729     1.342
    12   1 H        0.805     0.339     0.616     1.232

Wiberg/Mayer (AO) data.
largest (>0.10) Wiberg bond orders for each atom

     #   Z sym  total        # sym  WBO       # sym  WBO       # sym  WBO
 ---------------------------------------------------------------------------
     1   6 C    3.986 --     3 O    1.099     4 H    0.959     5 H    0.956
                             2 C    0.950
     2   6 C    3.962 --     7 O    1.017     8 H    0.976     6 H    0.973
                             1 C    0.950
     3   8 O    1.502 --     1 C    1.099    11 H    0.109
     4   1 H    0.996 --     1 C    0.959
     5   1 H    0.995 --     1 C    0.956
     6   1 H    1.000 --     2 C    0.973
     7   8 O    1.884 --     2 C    1.017     9 H    0.776
     8   1 H    1.000 --     2 C    0.976
     9   1 H    0.888 --     7 O    0.776
    10   8 O    1.740 --    12 H    0.885    11 H    0.801
    11   1 H    0.911 --    10 O    0.801     3 O    0.109
    12   1 H    0.885 --    10 O    0.885
 ---------------------------------------------------------------------------

molecular dipole:
                 x           y           z       tot (Debye)
 q only:       12.337       7.234      -3.889
   full:       12.509       7.234      -4.094      38.174

 projected vibrational frequencies (cm⁻¹)
eigval :       -0.00    -0.00    -0.00    -0.00     0.00     0.00
eigval :       15.35    68.96   120.47   141.78   298.60   355.43
eigval :      591.88   636.98   780.69   872.26   887.62   896.72
eigval :     1069.27  1099.14  1119.87  1163.77  1241.96  1260.99
eigval :     1332.99  1342.77  1481.05  1502.46  1554.17  2585.06
eigval :     2600.28  2645.47  2754.57  2838.08  2920.15  3602.91

   temp. (K)  partition function   enthalpy   heat capacity  entropy
                                   cal/mol     cal/K/mol   cal/K/mol   J/K/mol
 298.15  VIB   442.                 2857.370     15.961     19.039
         ROT  0.143E+06              888.752      2.981     26.575
         INT  0.634E+08             3746.122     18.941     45.614
         TR   0.680E+27             1481.254      4.968     39.001
         TOT                        5227.3761    23.9096    84.6147   354.0280

       T/K    H(0)-H(T)+PV         H(T)/Eh          T*S/Eh         G(T)/Eh
   ------------------------------------------------------------------------
    298.15    0.833035E-02    0.989597E-01    0.402032E-01    0.587565E-01
   ------------------------------------------------------------------------

         :::::::::::::::::::::::::::::::::::::::::::::::::::::
         ::                  THERMODYNAMIC                  ::
         :::::::::::::::::::::::::::::::::::::::::::::::::::::
         :: total free energy         -20.271091948861 Eh   ::
         ::.................................................::
         :: total energy              -20.329848494210 Eh   ::
         :: zero point energy           0.090629373241 Eh   ::
         :: G(RRHO) w/o ZPVE           -0.031872827892 Eh   ::
         :: G(RRHO) contrib.            0.058756545349 Eh   ::
         :::::::::::::::::::::::::::::::::::::::::::::::::::::

           -------------------------------------------------
          | TOTAL ENERGY              -20.329848494210 Eh   |
          | TOTAL ENTHALPY            -20.230888766871 Eh   |
          | TOTAL FREE ENERGY         -20.271091948861 Eh   |
          | GRADIENT NORM               0.000893985867 Eh/α |
          | HOMO-LUMO GAP              11.506602093059 eV   |
           -------------------------------------------------

 * finished run on 2025/10/18 at 02:55:09.213
normal termination of xtb
