   * xtb version 6.7.1 (edcfbbe) compiled by 'albert@albert-system' on 2024-07-22

   ID    Z sym.   atoms
    1    6 C      1, 2
    2    8 O      3, 7, 10
    3    1 H      4-6, 8, 9, 11, 12

          program call               : xtb tb_lite_results_shiftn0p2_gp149_b0_rot270_complex.xyz --ohess --chrg -1 --alpb water
      * Solvation model:               ALPB
        Solvent                        water
        Solvent mass                       1.8000E+01 g/mol
          :  Hamiltonian                  GFN2-xTB          :
 * total energy  :   -20.3227686 Eh     change       -0.1037392E-11 Eh
 * total energy  :   -20.3275713 Eh     change       -0.4802637E-02 Eh
 * total energy  :   -20.3283423 Eh     change       -0.7709903E-03 Eh
 * total energy  :   -20.3287603 Eh     change       -0.4180860E-03 Eh
 * total energy  :   -20.3291989 Eh     change       -0.4385239E-03 Eh
 * total energy  :   -20.3294043 Eh     change       -0.2054715E-03 Eh
 * total energy  :   -20.3295269 Eh     change       -0.1225854E-03 Eh
 * total energy  :   -20.3295755 Eh     change       -0.4855637E-04 Eh
 * total energy  :   -20.3296041 Eh     change       -0.2862907E-04 Eh
 * total energy  :   -20.3296329 Eh     change       -0.2879216E-04 Eh
 * total energy  :   -20.3297011 Eh     change       -0.6817559E-04 Eh
 * total energy  :   -20.3297462 Eh     change       -0.4516338E-04 Eh
 * total energy  :   -20.3297996 Eh     change       -0.5335842E-04 Eh
 * total energy  :   -20.3298293 Eh     change       -0.2973768E-04 Eh
 * total energy  :   -20.3298456 Eh     change       -0.1630731E-04 Eh
 * total energy  :   -20.3298545 Eh     change       -0.8804866E-05 Eh
 * total energy  :   -20.3298594 Eh     change       -0.4961862E-05 Eh
   *** GEOMETRY OPTIMIZATION CONVERGED AFTER 17 ITERATIONS ***

 final structure:
================
12
 xtb: 6.7.1 (edcfbbe)
C           -5.88317484768764       -3.97973994708007        1.33715681281326
C           -6.68200094805904       -5.26623007180946        0.94946522932817
O           -6.73001982590436       -3.08375137645600        1.90620829087284
H           -5.04323881655244       -4.25981513806428        2.00596724359398
H           -5.42897203905493       -3.55366976929587        0.41056028183766
H           -6.62596518182513       -5.99919281929904        1.76815284696292
O           -8.01323931812214       -4.87216564238594        0.76367447922696
H           -6.29913109127240       -5.71671580042543        0.02933943823621
H           -7.99517471952791       -3.97328149530649        1.22355442221177
O           -6.52822661326954       -3.12667621246426        4.49568334531271
H           -6.59172599626157       -3.08853627439789        3.49060386586361
H           -7.41876226944053       -2.92424299004275        4.80048043407386

          :  Hamiltonian                  GFN2-xTB          :
         :: gradient norm              0.000860727843 Eh/a0 ::
         :: HOMO-LUMO gap             11.473433500898 eV    ::
         :: SCC energy               -20.457609448881 Eh    ::
         :: -> dispersion             -0.005750660020 Eh    ::
         :: -> Gsolv                  -0.111734550030 Eh    ::
         :: repulsion energy           0.127750032171 Eh    ::

    * Orbital Energies and Occupations

         #    Occupation            Energy/Eh            Energy/eV
      -------------------------------------------------------------
         1        2.0000           -0.6711666             -18.2634
       ...           ...                  ...                  ...
         5        2.0000           -0.5689423             -15.4817
         6        2.0000           -0.5384577             -14.6522
         7        2.0000           -0.5301126             -14.4251
         8        2.0000           -0.5181492             -14.0996
         9        2.0000           -0.5091216             -13.8539
        10        2.0000           -0.4840995             -13.1730
        11        2.0000           -0.4715200             -12.8307
        12        2.0000           -0.4531929             -12.3320
        13        2.0000           -0.4351015             -11.8397
        14        2.0000           -0.4105214             -11.1709
        15        2.0000           -0.3981863             -10.8352
        16        2.0000           -0.3495705              -9.5123
        17        2.0000           -0.3397587              -9.2453 (HOMO)
        18                          0.0818823               2.2281 (LUMO)
        19                          0.1038262               2.8253
        20                          0.1279038               3.4804
        21                          0.1341050               3.6492
        22                          0.1462963               3.9809
        23                          0.1779368               4.8419
        24                          0.2008850               5.4664
        25                          0.2514316               6.8418
        26                          0.2745409               7.4706
        27                          0.3297116               8.9719
      -------------------------------------------------------------
                  HL-Gap            0.4216409 Eh           11.4734 eV

     #   Z          covCN         q      C6AA      α(0)
     1   6 C        3.667     0.137    18.599     6.184
     2   6 C        3.670     0.078    19.521     6.334
     3   8 O        0.857    -0.802    31.654     7.543
     4   1 H        0.922    -0.061     4.384     3.275
     5   1 H        0.920    -0.069     4.586     3.349
     6   1 H        0.923    -0.004     3.134     2.769
     7   8 O        1.648    -0.532    23.606     6.559
     8   1 H        0.924     0.004     2.987     2.703
     9   1 H        0.797     0.335     0.625     1.243
    10   8 O        1.602    -0.721    28.274     7.176
    11   1 H        0.800     0.298     0.728     1.341
    12   1 H        0.805     0.338     0.616     1.233

Wiberg/Mayer (AO) data.
largest (>0.10) Wiberg bond orders for each atom

     #   Z sym  total        # sym  WBO       # sym  WBO       # sym  WBO
 ---------------------------------------------------------------------------
     1   6 C    3.986 --     3 O    1.099     4 H    0.958     5 H    0.955
                             2 C    0.951
     2   6 C    3.962 --     7 O    1.015     8 H    0.976     6 H    0.973
                             1 C    0.951
     3   8 O    1.494 --     1 C    1.099    11 H    0.110
     4   1 H    0.996 --     1 C    0.958
     5   1 H    0.995 --     1 C    0.955
     6   1 H    1.000 --     2 C    0.973
     7   8 O    1.887 --     2 C    1.015     9 H    0.783
     8   1 H    1.000 --     2 C    0.976
     9   1 H    0.888 --     7 O    0.783
    10   8 O    1.740 --    12 H    0.885    11 H    0.800
    11   1 H    0.911 --    10 O    0.800     3 O    0.110
    12   1 H    0.886 --    10 O    0.885
 ---------------------------------------------------------------------------

molecular dipole:
                 x           y           z       tot (Debye)
 q only:       12.434       6.870      -3.788
   full:       12.622       6.808      -3.942      37.805

 projected vibrational frequencies (cm⁻¹)
eigval :       -0.00    -0.00    -0.00     0.00     0.00     0.00
eigval :       14.60    79.83   100.16   142.61   300.86   347.33
eigval :      593.25   629.68   777.81   872.78   896.75   909.76
eigval :     1071.20  1098.68  1120.82  1163.74  1244.11  1265.63
eigval :     1335.28  1344.31  1480.88  1502.50  1559.70  2580.88
eigval :     2603.87  2671.89  2755.75  2839.63  2926.50  3610.36

   temp. (K)  partition function   enthalpy   heat capacity  entropy
                                   cal/mol     cal/K/mol   cal/K/mol   J/K/mol
 298.15  VIB   474.                 2870.470     16.012     19.241
         ROT  0.143E+06              888.752      2.981     26.577
         INT  0.679E+08             3759.222     18.993     45.818
         TR   0.680E+27             1481.254      4.968     39.001
         TOT                        5240.4760    23.9607    84.8185   354.8808

       T/K    H(0)-H(T)+PV         H(T)/Eh          T*S/Eh         G(T)/Eh
   ------------------------------------------------------------------------
    298.15    0.835123E-02    0.991160E-01    0.403000E-01    0.588160E-01
   ------------------------------------------------------------------------

         :::::::::::::::::::::::::::::::::::::::::::::::::::::
         ::                  THERMODYNAMIC                  ::
         :::::::::::::::::::::::::::::::::::::::::::::::::::::
         :: total free energy         -20.271043456029 Eh   ::
         ::.................................................::
         :: total energy              -20.329859417954 Eh   ::
         :: zero point energy           0.090764758112 Eh   ::
         :: G(RRHO) w/o ZPVE           -0.031948796187 Eh   ::
         :: G(RRHO) contrib.            0.058815961925 Eh   ::
         :::::::::::::::::::::::::::::::::::::::::::::::::::::

           -------------------------------------------------
          | TOTAL ENERGY              -20.329859417954 Eh   |
          | TOTAL ENTHALPY            -20.230743429725 Eh   |
          | TOTAL FREE ENERGY         -20.271043456029 Eh   |
          | GRADIENT NORM               0.000860854385 Eh/α |
          | HOMO-LUMO GAP              11.473433983152 eV   |
           -------------------------------------------------

 * finished run on 2025/10/18 at 02:55:05.616
normal termination of xtb
