   * xtb version 6.7.1 (edcfbbe) compiled by 'albert@albert-system' on 2024-07-22

   ID    Z sym.   atoms
    1    6 C      1, 2
    2    8 O      3, 7, 10
    3    1 H      4-6, 8, 9, 11, 12

          program call               : xtb tb_lite_results_shiftn0p15_gp149_b0_rot270_complex.xyz --ohess --chrg -1 --alpb water
      * Solvation model:               ALPB
        Solvent                        water
        Solvent mass                       1.8000E+01 g/mol
          :  Hamiltonian                  GFN2-xTB          :
 * total energy  :   -20.3231135 Eh     change       -0.4536815E-11 Eh
 * total energy  :   -20.3274233 Eh     change       -0.4309796E-02 Eh
 * total energy  :   -20.3282071 Eh     change       -0.7837686E-03 Eh
 * total energy  :   -20.3286775 Eh     change       -0.4704500E-03 Eh
 * total energy  :   -20.3292116 Eh     change       -0.5340624E-03 Eh
 * total energy  :   -20.3294110 Eh     change       -0.1994176E-03 Eh
 * total energy  :   -20.3295195 Eh     change       -0.1084903E-03 Eh
 * total energy  :   -20.3295676 Eh     change       -0.4812633E-04 Eh
 * total energy  :   -20.3296007 Eh     change       -0.3303677E-04 Eh
 * total energy  :   -20.3296326 Eh     change       -0.3195621E-04 Eh
 * total energy  :   -20.3296993 Eh     change       -0.6671221E-04 Eh
 * total energy  :   -20.3297498 Eh     change       -0.5049936E-04 Eh
 * total energy  :   -20.3297999 Eh     change       -0.5004169E-04 Eh
 * total energy  :   -20.3298231 Eh     change       -0.2327691E-04 Eh
 * total energy  :   -20.3298469 Eh     change       -0.2377035E-04 Eh
 * total energy  :   -20.3298584 Eh     change       -0.1149438E-04 Eh
 * total energy  :   -20.3298623 Eh     change       -0.3846054E-05 Eh
 * total energy  :   -20.3298659 Eh     change       -0.3668993E-05 Eh
 * total energy  :   -20.3298692 Eh     change       -0.3310491E-05 Eh
   *** GEOMETRY OPTIMIZATION CONVERGED AFTER 19 ITERATIONS ***

 final structure:
================
12
 xtb: 6.7.1 (edcfbbe)
C           -5.88211131752892       -3.97869326911590        1.35295751642882
C           -6.67817733444458       -5.26396246576687        0.95036657381838
O           -6.73391012716326       -3.08889598377836        1.92489161877915
H           -5.04565371862349       -4.26255941616284        2.02366919554642
H           -5.42457822863436       -3.54593883701156        0.43168759877206
H           -6.61518164678913       -6.00764255778274        1.75815586817664
O           -8.01194065531619       -4.87215036170392        0.77771984506019
H           -6.29794375376914       -5.69941438259509        0.02200602151990
H           -7.99017441635100       -3.97574995997873        1.24276857922268
O           -6.53550536626213       -3.13092729534342        4.51518754266935
H           -6.59942147640511       -3.09170337625491        3.51087494161072
H           -7.42503362569015       -2.92637963153317        4.82056138872903

          :  Hamiltonian                  GFN2-xTB          :
         :: gradient norm              0.000637528339 Eh/a0 ::
         :: HOMO-LUMO gap             11.481190137920 eV    ::
         :: SCC energy               -20.457764336890 Eh    ::
         :: -> dispersion             -0.005744879342 Eh    ::
         :: -> Gsolv                  -0.111690722397 Eh    ::
         :: repulsion energy           0.127895104057 Eh    ::

    * Orbital Energies and Occupations

         #    Occupation            Energy/Eh            Energy/eV
      -------------------------------------------------------------
         1        2.0000           -0.6709023             -18.2562
       ...           ...                  ...                  ...
         5        2.0000           -0.5688318             -15.4787
         6        2.0000           -0.5383726             -14.6499
         7        2.0000           -0.5300744             -14.4241
         8        2.0000           -0.5182342             -14.1019
         9        2.0000           -0.5090241             -13.8513
        10        2.0000           -0.4841018             -13.1731
        11        2.0000           -0.4714984             -12.8301
        12        2.0000           -0.4532527             -12.3336
        13        2.0000           -0.4348565             -11.8330
        14        2.0000           -0.4106297             -11.1738
        15        2.0000           -0.3979332             -10.8283
        16        2.0000           -0.3498744              -9.5206
        17        2.0000           -0.3399232              -9.2498 (HOMO)
        18                          0.0820029               2.2314 (LUMO)
        19                          0.1030346               2.8037
        20                          0.1282307               3.4893
        21                          0.1345012               3.6600
        22                          0.1467514               3.9933
        23                          0.1780839               4.8459
        24                          0.2017937               5.4911
        25                          0.2520840               6.8596
        26                          0.2747721               7.4769
        27                          0.3303248               8.9886
      -------------------------------------------------------------
                  HL-Gap            0.4219261 Eh           11.4812 eV

     #   Z          covCN         q      C6AA      α(0)
     1   6 C        3.667     0.136    18.605     6.185
     2   6 C        3.670     0.077    19.523     6.334
     3   8 O        0.857    -0.802    31.637     7.541
     4   1 H        0.922    -0.061     4.371     3.269
     5   1 H        0.921    -0.069     4.578     3.346
     6   1 H        0.923    -0.004     3.135     2.769
     7   8 O        1.648    -0.534    23.630     6.562
     8   1 H        0.924     0.004     2.992     2.705
     9   1 H        0.797     0.335     0.625     1.243
    10   8 O        1.603    -0.721    28.267     7.175
    11   1 H        0.800     0.298     0.728     1.340
    12   1 H        0.805     0.339     0.616     1.232

Wiberg/Mayer (AO) data.
largest (>0.10) Wiberg bond orders for each atom

     #   Z sym  total        # sym  WBO       # sym  WBO       # sym  WBO
 ---------------------------------------------------------------------------
     1   6 C    3.986 --     3 O    1.099     4 H    0.959     5 H    0.956
                             2 C    0.950
     2   6 C    3.962 --     7 O    1.016     8 H    0.976     6 H    0.973
                             1 C    0.950
     3   8 O    1.495 --     1 C    1.099    11 H    0.109
     4   1 H    0.996 --     1 C    0.959
     5   1 H    0.995 --     1 C    0.956
     6   1 H    1.000 --     2 C    0.973
     7   8 O    1.886 --     2 C    1.016     9 H    0.781
     8   1 H    1.000 --     2 C    0.976
     9   1 H    0.888 --     7 O    0.781
    10   8 O    1.740 --    12 H    0.885    11 H    0.800
    11   1 H    0.911 --    10 O    0.800     3 O    0.109
    12   1 H    0.885 --    10 O    0.885
 ---------------------------------------------------------------------------

molecular dipole:
                 x           y           z       tot (Debye)
 q only:       12.448       6.885      -3.814
   full:       12.638       6.824      -3.971      37.875

 projected vibrational frequencies (cm⁻¹)
eigval :       -0.00    -0.00    -0.00     0.00     0.00     0.00
eigval :      -28.18    60.74    80.61   141.79   299.34   350.58
eigval :      595.41   631.92   778.36   872.21   894.80   903.17
eigval :     1070.24  1098.53  1120.42  1164.26  1243.19  1263.78
eigval :     1334.38  1343.79  1480.68  1502.15  1559.19  2588.06
eigval :     2609.49  2668.80  2759.40  2843.95  2926.60  3614.75

   temp. (K)  partition function   enthalpy   heat capacity  entropy
                                   cal/mol     cal/K/mol   cal/K/mol   J/K/mol
 298.15  VIB   48.3                 2346.362     14.789     15.127
         ROT  0.144E+06              888.752      2.981     26.578
         INT  0.694E+07             3235.114     17.770     41.705
         TR   0.680E+27             1481.254      4.968     39.001
         TOT                        4716.3681    22.7378    80.7057   337.6726

       T/K    H(0)-H(T)+PV         H(T)/Eh          T*S/Eh         G(T)/Eh
   ------------------------------------------------------------------------
    298.15    0.751601E-02    0.981884E-01    0.383459E-01    0.598425E-01
   ------------------------------------------------------------------------

         :::::::::::::::::::::::::::::::::::::::::::::::::::::
         ::                  THERMODYNAMIC                  ::
         :::::::::::::::::::::::::::::::::::::::::::::::::::::
         :: total free energy         -20.270026764951 Eh   ::
         ::.................................................::
         :: total energy              -20.329869234352 Eh   ::
         :: zero point energy           0.090672340064 Eh   ::
         :: G(RRHO) w/o ZPVE           -0.030829870664 Eh   ::
         :: G(RRHO) contrib.            0.059842469400 Eh   ::
         :::::::::::::::::::::::::::::::::::::::::::::::::::::

           -------------------------------------------------
          | TOTAL ENERGY              -20.329869234352 Eh   |
          | TOTAL ENTHALPY            -20.231680883282 Eh   |
          | TOTAL FREE ENERGY         -20.270026764951 Eh   |
          | GRADIENT NORM               0.000637496996 Eh/α |
          | HOMO-LUMO GAP              11.481192785727 eV   |
           -------------------------------------------------

 * finished run on 2025/10/18 at 02:55:07.153
normal termination of xtb
