   * xtb version 6.7.1 (edcfbbe) compiled by 'albert@albert-system' on 2024-07-22

   ID    Z sym.   atoms
    1    6 C      1, 2
    2    8 O      3, 7
    3    1 H      4-6, 8, 9

          program call               : xtb tb_lite_results_shiftn0p2_gp159_b0_rot270_solute.xyz --ohess --chrg -1
          :  Hamiltonian                  GFN2-xTB          :
 * total energy  :   -15.1245131 Eh     change       -0.2147615E-11 Eh
 * total energy  :   -15.1269042 Eh     change       -0.2391101E-02 Eh
 * total energy  :   -15.1273886 Eh     change       -0.4843116E-03 Eh
 * total energy  :   -15.1278811 Eh     change       -0.4924967E-03 Eh
 * total energy  :   -15.1282552 Eh     change       -0.3741437E-03 Eh
 * total energy  :   -15.1284577 Eh     change       -0.2024703E-03 Eh
 * total energy  :   -15.1286126 Eh     change       -0.1549699E-03 Eh
 * total energy  :   -15.1286412 Eh     change       -0.2855755E-04 Eh
 * total energy  :   -15.1286895 Eh     change       -0.4835654E-04 Eh
 * total energy  :   -15.1287048 Eh     change       -0.1522033E-04 Eh
 * total energy  :   -15.1287143 Eh     change       -0.9569846E-05 Eh
 * total energy  :   -15.1287200 Eh     change       -0.5671465E-05 Eh
 * total energy  :   -15.1287453 Eh     change       -0.2531961E-04 Eh
 * total energy  :   -15.1287628 Eh     change       -0.1751972E-04 Eh
 * total energy  :   -15.1287922 Eh     change       -0.2936163E-04 Eh
 * total energy  :   -15.1287968 Eh     change       -0.4622061E-05 Eh
 * total energy  :   -15.1287983 Eh     change       -0.1442769E-05 Eh
   *** GEOMETRY OPTIMIZATION CONVERGED AFTER 17 ITERATIONS ***

 final structure:
================
9
 xtb: 6.7.1 (edcfbbe)
C           -5.85884268074676       -3.97665196821701        1.20959154818715
C           -6.73049929126680       -5.28913750053063        0.99532237463880
O           -6.72308346224554       -3.00389688125993        1.59327657395721
H           -5.07313915825734       -4.17352640275967        1.97372836325977
H           -5.32826189864667       -3.72521121413319        0.26344453249284
H           -6.35318508817037       -6.09770955738005        1.66219129893878
O           -8.01239810427476       -4.94448721054476        1.27300619211392
H           -6.60342088006154       -5.65263531542354       -0.05009669044660
H           -7.69667472543209       -3.77107415020470        1.53511785822419

          :  Hamiltonian                  GFN2-xTB          :
         :: gradient norm              0.000449328261 Eh/a0 ::
         :: HOMO-LUMO gap             11.655519326808 eV    ::
         :: SCC energy               -15.218390175653 Eh    ::
         :: -> dispersion             -0.004445756968 Eh    ::
         :: repulsion energy           0.089591900281 Eh    ::

    * Orbital Energies and Occupations

         #    Occupation            Energy/Eh            Energy/eV
      -------------------------------------------------------------
         1        2.0000           -0.4508490             -12.2682
         2        2.0000           -0.4364782             -11.8772
         3        2.0000           -0.4046715             -11.0117
         4        2.0000           -0.3704905             -10.0816
         5        2.0000           -0.3381579              -9.2017
         6        2.0000           -0.3323767              -9.0444
         7        2.0000           -0.3014064              -8.2017
         8        2.0000           -0.2853582              -7.7650
         9        2.0000           -0.2679078              -7.2901
        10        2.0000           -0.2115014              -5.7552
        11        2.0000           -0.1728688              -4.7040
        12        2.0000           -0.1723334              -4.6894
        13        2.0000           -0.1580086              -4.2996 (HOMO)
        14                          0.2703239               7.3559 (LUMO)
        15                          0.3002788               8.1710
        16                          0.3031909               8.2502
        17                          0.3246651               8.8346
        18                          0.3497578               9.5174
        19                          0.3886449              10.5756
        20                          0.4365065              11.8779
        21                          0.4901430              13.3375
      -------------------------------------------------------------
                  HL-Gap            0.4283324 Eh           11.6555 eV

     #   Z          covCN         q      C6AA      α(0)
     1   6 C        3.663     0.120    18.873     6.232
     2   6 C        3.663     0.120    18.867     6.231
     3   8 O        1.328    -0.631    26.401     6.911
     4   1 H        0.921    -0.073     4.693     3.388
     5   1 H        0.921    -0.073     4.692     3.387
     6   1 H        0.921    -0.073     4.702     3.391
     7   8 O        1.323    -0.632    26.436     6.915
     8   1 H        0.921    -0.073     4.705     3.392
     9   1 H        0.943     0.314     0.668     1.278

Wiberg/Mayer (AO) data.
largest (>0.10) Wiberg bond orders for each atom

     #   Z sym  total        # sym  WBO       # sym  WBO       # sym  WBO
 ---------------------------------------------------------------------------
     1   6 C    3.981 --     3 O    1.100     4 H    0.959     5 H    0.959
                             2 C    0.923
     2   6 C    3.981 --     7 O    1.101     6 H    0.959     8 H    0.959
                             1 C    0.923
     3   8 O    1.737 --     1 C    1.100     9 H    0.444
     4   1 H    0.995 --     1 C    0.959
     5   1 H    0.995 --     1 C    0.959
     6   1 H    0.995 --     2 C    0.959
     7   8 O    1.736 --     2 C    1.101     9 H    0.442
     8   1 H    0.995 --     2 C    0.959
     9   1 H    0.901 --     3 O    0.444     7 O    0.442
 ---------------------------------------------------------------------------

molecular dipole:
                 x           y           z       tot (Debye)
 q only:       13.376       7.850      -2.538
   full:       13.829       7.572      -2.678      40.649

 projected vibrational frequencies (cm⁻¹)
eigval :       -0.00    -0.00    -0.00     0.00     0.00     0.00
eigval :      118.57   393.32   669.90   728.00   856.55   857.03
eigval :     1106.84  1121.20  1131.46  1207.16  1208.44  1227.41
eigval :     1308.08  1377.87  1525.35  1529.92  1712.79  2596.88
eigval :     2636.74  2709.43  2730.61

   temp. (K)  partition function   enthalpy   heat capacity  entropy
                                   cal/mol     cal/K/mol   cal/K/mol   J/K/mol
 298.15  VIB   3.07                  951.625      7.988      5.410
         ROT  0.179E+05              888.752      2.981     22.445
         INT  0.551E+05             1840.377     10.969     27.855
         TR   0.462E+27             1481.254      4.968     38.230
         TOT                        3321.6312    15.9371    66.0849   276.4992

       T/K    H(0)-H(T)+PV         H(T)/Eh          T*S/Eh         G(T)/Eh
   ------------------------------------------------------------------------
    298.15    0.529336E-02    0.707987E-01    0.313991E-01    0.393997E-01
   ------------------------------------------------------------------------

         :::::::::::::::::::::::::::::::::::::::::::::::::::::
         ::                  THERMODYNAMIC                  ::
         :::::::::::::::::::::::::::::::::::::::::::::::::::::
         :: total free energy         -15.089398613366 Eh   ::
         ::.................................................::
         :: total energy              -15.128798275372 Eh   ::
         :: zero point energy           0.065505369239 Eh   ::
         :: G(RRHO) w/o ZPVE           -0.026105707233 Eh   ::
         :: G(RRHO) contrib.            0.039399662006 Eh   ::
         :::::::::::::::::::::::::::::::::::::::::::::::::::::

           -------------------------------------------------
          | TOTAL ENERGY              -15.128798275372 Eh   |
          | TOTAL ENTHALPY            -15.057999549826 Eh   |
          | TOTAL FREE ENERGY         -15.089398613366 Eh   |
          | GRADIENT NORM               0.000449312767 Eh/α |
          | HOMO-LUMO GAP              11.655519033379 eV   |
           -------------------------------------------------

 * finished run on 2025/10/18 at 02:55:04.437
normal termination of xtb
