   * xtb version 6.7.1 (edcfbbe) compiled by 'albert@albert-system' on 2024-07-22

   ID    Z sym.   atoms
    1    6 C      1, 2, 5, 8
    2    8 O      3
    3    1 H      4, 6, 7, 9-14

          program call               : xtb xyz.xyz --alpb water --charge -1 --ohess
      * Solvation model:               ALPB
        Solvent                        water
        Solvent mass                       1.8000E+01 g/mol
          :  Hamiltonian                  GFN2-xTB          :
 * total energy  :   -17.4801367 Eh     change       -0.2748024E-10 Eh
 * total energy  :   -17.4819282 Eh     change       -0.1791518E-02 Eh
 * total energy  :   -17.4821678 Eh     change       -0.2395365E-03 Eh
 * total energy  :   -17.4822140 Eh     change       -0.4620684E-04 Eh
 * total energy  :   -17.4822371 Eh     change       -0.2308860E-04 Eh
 * total energy  :   -17.4822458 Eh     change       -0.8746374E-05 Eh
 * total energy  :   -17.4822514 Eh     change       -0.5568647E-05 Eh
 * total energy  :   -17.4822554 Eh     change       -0.3957232E-05 Eh
   *** GEOMETRY OPTIMIZATION CONVERGED AFTER 8 ITERATIONS ***

 final structure:
================
14
 xtb: 6.7.1 (edcfbbe)
C           -3.79560419899514       -3.92818666098867       -2.82592988452557
C           -4.25476764248312       -2.43913043888551       -2.89230121547472
O           -3.24945782529650       -1.56330045019645       -2.77595028672404
H           -4.63402888280941       -4.60148792890893       -2.99336434111182
C           -5.38708641618118       -2.25537511021113       -1.82843350501595
H           -4.77729465673936       -2.33003832925015       -3.91457280323904
H           -3.03326268403086       -4.09699134593346       -3.58324237418457
C           -6.01165193395716       -0.87263948186787       -1.91582955656144
H           -3.35781359489665       -4.11795150956628       -1.84808050209726
H           -6.14477815682342       -3.03076900847009       -1.97234713938404
H           -4.92711767990164       -2.38852765530095       -0.84545215762446
H           -6.55319327085517       -0.76483510580995       -2.85383955440572
H           -6.68925670592579       -0.69004115576499       -1.08419869068118
H           -5.20853035110459       -0.13727781884557       -1.90141998897018

          :  Hamiltonian                  GFN2-xTB          :
         :: gradient norm              0.000651074887 Eh/a0 ::
         :: HOMO-LUMO gap             10.576676073540 eV    ::
         :: SCC energy               -17.677117086175 Eh    ::
         :: -> dispersion             -0.008205521532 Eh    ::
         :: -> Gsolv                  -0.116834693079 Eh    ::
         :: repulsion energy           0.194861732912 Eh    ::

    * Orbital Energies and Occupations

         #    Occupation            Energy/Eh            Energy/eV
      -------------------------------------------------------------
         1        2.0000           -0.5978681             -16.2688
       ...           ...                  ...                  ...
         4        2.0000           -0.5550598             -15.1039
         5        2.0000           -0.5252876             -14.2938
         6        2.0000           -0.4919069             -13.3855
         7        2.0000           -0.4784255             -13.0186
         8        2.0000           -0.4745769             -12.9139
         9        2.0000           -0.4656465             -12.6709
        10        2.0000           -0.4444493             -12.0941
        11        2.0000           -0.4304526             -11.7132
        12        2.0000           -0.4232845             -11.5182
        13        2.0000           -0.4158053             -11.3146
        14        2.0000           -0.4023295             -10.9479
        15        2.0000           -0.2929972              -7.9729
        16        2.0000           -0.2925271              -7.9601 (HOMO)
        17                          0.0961586               2.6166 (LUMO)
        18                          0.1124526               3.0600
        19                          0.1317195               3.5843
        20                          0.1534867               4.1766
        21                          0.1679763               4.5709
        22                          0.1837077               4.9989
        23                          0.1912279               5.2036
        24                          0.2046325               5.5683
        25                          0.2320339               6.3140
        26                          0.2506177               6.8197
        27                          0.2748313               7.4785
       ...                                ...                  ...
        29                          0.3742636              10.1842
      -------------------------------------------------------------
                  HL-Gap            0.3886857 Eh           10.5767 eV

     #   Z          covCN         q      C6AA      α(0)
     1   6 C        3.749    -0.104    22.557     6.774
     2   6 C        3.708     0.175    17.921     6.051
     3   8 O        0.855    -0.879    34.094     7.828
     4   1 H        0.925     0.005     2.971     2.696
     5   6 C        3.798    -0.067    21.783     6.646
     6   1 H        0.911    -0.141     7.265     4.216
     7   1 H        0.925     0.009     2.914     2.670
     8   6 C        3.751    -0.088    22.240     6.725
     9   1 H        0.925     0.009     2.902     2.664
    10   1 H        0.924    -0.004     3.128     2.766
    11   1 H        0.924     0.002     3.018     2.717
    12   1 H        0.925     0.021     2.712     2.575
    13   1 H        0.925     0.034     2.533     2.489
    14   1 H        0.925     0.028     2.621     2.532

Wiberg/Mayer (AO) data.
largest (>0.10) Wiberg bond orders for each atom

     #   Z sym  total        # sym  WBO       # sym  WBO       # sym  WBO
 ---------------------------------------------------------------------------
     1   6 C    3.993 --     9 H    0.991     7 H    0.990     4 H    0.990
                             2 C    0.956
     2   6 C    3.977 --     3 O    1.151     1 C    0.956     5 C    0.945
                             6 H    0.913
     3   8 O    1.321 --     2 C    1.151
     4   1 H    1.000 --     1 C    0.990
     5   6 C    3.993 --     8 C    1.022    11 H    0.981    10 H    0.981
                             2 C    0.945
     6   1 H    0.980 --     2 C    0.913
     7   1 H    1.000 --     1 C    0.990
     8   6 C    3.999 --     5 C    1.022    12 H    0.989    13 H    0.987
                            14 H    0.987
     9   1 H    1.000 --     1 C    0.991
    10   1 H    1.000 --     5 C    0.981
    11   1 H    1.000 --     5 C    0.981
    12   1 H    1.000 --     8 C    0.989
    13   1 H    0.999 --     8 C    0.987
    14   1 H    0.999 --     8 C    0.987
 ---------------------------------------------------------------------------

molecular dipole:
                 x           y           z       tot (Debye)
 q only:        6.599       3.362       5.413
   full:        6.423       3.141       5.361      22.715

 projected vibrational frequencies (cm⁻¹)
eigval :       -0.00    -0.00    -0.00    -0.00     0.00     0.00
eigval :       99.47   190.76   198.32   247.48   369.19   469.49
eigval :      502.12   788.88   828.31   910.88   965.66  1012.85
eigval :     1033.86  1097.73  1126.88  1158.32  1257.62  1284.67
eigval :     1329.81  1351.19  1366.02  1387.97  1476.33  1484.14
eigval :     1486.40  1509.47  1511.30  2140.74  2918.98  2947.08
eigval :     2984.74  3000.04  3005.73  3008.51  3017.77  3018.71

   temp. (K)  partition function   enthalpy   heat capacity  entropy
                                   cal/mol     cal/K/mol   cal/K/mol   J/K/mol
 298.15  VIB   16.6                 2285.620     16.305     13.212
         ROT  0.967E+05              888.752      2.981     25.794
         INT  0.160E+07             3174.372     19.285     39.007
         TR   0.605E+27             1481.254      4.968     38.767
         TOT                        4655.6263    24.2536    77.7735   325.4042

       T/K    H(0)-H(T)+PV         H(T)/Eh          T*S/Eh         G(T)/Eh
   ------------------------------------------------------------------------
    298.15    0.741921E-02    0.126994E+00    0.369527E-01    0.900417E-01
   ------------------------------------------------------------------------

         :::::::::::::::::::::::::::::::::::::::::::::::::::::
         ::                  THERMODYNAMIC                  ::
         :::::::::::::::::::::::::::::::::::::::::::::::::::::
         :: total free energy         -17.392213624358 Eh   ::
         ::.................................................::
         :: total energy              -17.482255353033 Eh   ::
         :: zero point energy           0.119575201149 Eh   ::
         :: G(RRHO) w/o ZPVE           -0.029533472475 Eh   ::
         :: G(RRHO) contrib.            0.090041728675 Eh   ::
         :::::::::::::::::::::::::::::::::::::::::::::::::::::

           -------------------------------------------------
          | TOTAL ENERGY              -17.482255353033 Eh   |
          | TOTAL ENTHALPY            -17.355260939068 Eh   |
          | TOTAL FREE ENERGY         -17.392213624358 Eh   |
          | GRADIENT NORM               0.000651085381 Eh/α |
          | HOMO-LUMO GAP              10.576675979239 eV   |
           -------------------------------------------------

 * finished run on 2025/10/18 at 01:00:12.622
