                         Program Version 5.0.4 -  RELEASE  -
|  1> !OPT PBE D3BJ def2-TZVP CPCM(water)
|  2>
|  3> *xyz -1 1
|  4> N     -8.594345   -3.318033   -1.809938
|  5> C     -7.679120   -2.607653   -1.804199
|  6> C     -6.655903   -1.813217   -1.797904
|  7> H     -5.751163   -2.095725   -1.277063
|  8> H     -6.701649   -0.863654   -2.313525
|  9> *
| 10>
| 11>                          ****END OF INPUT****
 Total Charge           Charge          ....   -1
 Multiplicity           Mult            ....    1
 Number of Electrons    NEL             ....   22
Dispersion correction           -0.002370115
FINAL SINGLE POINT ENERGY      -132.126890619404
Dispersion correction            ... done
Dispersion correction           -0.002340763
FINAL SINGLE POINT ENERGY      -132.135193180068
Dispersion correction            ... done
Dispersion correction           -0.002333228
FINAL SINGLE POINT ENERGY      -132.135667884149
Dispersion correction            ... done
FINAL SINGLE POINT ENERGY      -132.135699621837
FINAL SINGLE POINT ENERGY      -132.135702765707
Dispersion correction            ... done
Dispersion correction           -0.002331691
FINAL SINGLE POINT ENERGY      -132.135703841243
Dispersion correction            ... done
Dispersion correction           -0.002331857
FINAL SINGLE POINT ENERGY      -132.135704365381
Dispersion correction            ... done
                    ***********************HURRAY********************

CARTESIAN COORDINATES (ANGSTROEM)
---------------------------------
  N     -8.654264   -3.368856   -1.808341
  C     -7.713204   -2.630377   -1.805684
  C     -6.629481   -1.791609   -1.799066
  H     -5.717594   -2.074104   -1.274354
  H     -6.667637   -0.833336   -2.315184

 Multiplicity           Mult            ....    1
 Number of Electrons    NEL             ....   22
 Basis Dimension        Dim             ....  105

ORBITAL ENERGIES
----------------

  NO   OCC          E(Eh)            E(eV)
   0   2.0000     -13.913394      -378.6027
   1   2.0000      -9.873924      -268.6831
   2   2.0000      -9.825422      -267.3633
   3   2.0000      -0.759314       -20.6620
   4   2.0000      -0.607278       -16.5249
   5   2.0000      -0.395718       -10.7680
   6   2.0000      -0.354730        -9.6527
   7   2.0000      -0.277574        -7.5532
   8   2.0000      -0.273771        -7.4497
   9   2.0000      -0.241888        -6.5821
  10   2.0000      -0.124178        -3.3791
  11   0.0000       0.022825         0.6211
  12   0.0000       0.050865         1.3841
  13   0.0000       0.090299         2.4572
  14   0.0000       0.106017         2.8849
  15   0.0000       0.125569         3.4169

MULLIKEN ATOMIC CHARGES
-----------------------
   0 N :   -0.354327
   1 C :   -0.208872
   2 C :   -0.702427
   3 H :    0.133170
   4 H :    0.132455
Sum of atomic charges:   -1.0000000

LOEWDIN ATOMIC CHARGES
----------------------
   0 N :   -0.242853
   1 C :   -0.417646
   2 C :   -0.569260
   3 H :    0.115101
   4 H :    0.114657

  Mayer bond orders larger than 0.100000
B(  0-N ,  1-C ) :   2.9463 B(  0-N ,  2-C ) :   0.1519 B(  1-C ,  2-C ) :   1.3685
B(  2-C ,  3-H ) :   0.9521 B(  2-C ,  4-H ) :   0.9520

Dispersion correction           -0.002331948
FINAL SINGLE POINT ENERGY      -132.135704678968

DIPOLE MOMENT
-------------
                                X             Y             Z
Electronic contribution:     -1.95993      -1.51582      -0.01298
Nuclear contribution   :      2.71167       2.10494       0.01745
                        -----------------------------------------
Total Dipole Moment    :      0.75174       0.58912       0.00446
                        -----------------------------------------
Magnitude (a.u.)       :      0.95509
Magnitude (Debye)      :      2.42765

Rotational constants in cm-1:     9.486726     0.338967     0.327273
Rotational constants in MHz : 284404.879610 10161.973890  9811.409109

                             ****ORCA TERMINATED NORMALLY****
TOTAL RUN TIME: 0 days 0 hours 1 minutes 21 seconds 636 msec
