   * xtb version 6.7.1 (edcfbbe) compiled by 'albert@albert-system' on 2024-07-22

   ID    Z sym.   atoms
    1    6 C      1, 6
    2   16 S      2
    3    1 H      3-5, 7, 9, 11, 12
    4    8 O      8, 10

          program call               : xtb tb_lite_results_shiftn0p25_gp363_b0_rot0_complex.xyz --opt
          :  Hamiltonian                  GFN2-xTB          :
 * total energy  :   -19.1012679 Eh     change       -0.5010037E-10 Eh
 * total energy  :   -19.1033928 Eh     change       -0.2124900E-02 Eh
 * total energy  :   -19.1039112 Eh     change       -0.5183735E-03 Eh
 * total energy  :   -19.1043155 Eh     change       -0.4043635E-03 Eh
 * total energy  :   -19.1045764 Eh     change       -0.2608136E-03 Eh
 * total energy  :   -19.1047780 Eh     change       -0.2015948E-03 Eh
 * total energy  :   -19.1049439 Eh     change       -0.1659522E-03 Eh
 * total energy  :   -19.1050866 Eh     change       -0.1426729E-03 Eh
 * total energy  :   -19.1052610 Eh     change       -0.1744364E-03 Eh
 * total energy  :   -19.1053417 Eh     change       -0.8073274E-04 Eh
 * total energy  :   -19.1099594 Eh     change       -0.7259483E-05 Eh
 * total energy  :   -19.1099684 Eh     change       -0.8978896E-05 Eh
 * total energy  :   -19.1099786 Eh     change       -0.1026607E-04 Eh
 * total energy  :   -19.1099859 Eh     change       -0.7295598E-05 Eh
 * total energy  :   -19.1099943 Eh     change       -0.8398637E-05 Eh
 * total energy  :   -19.1100064 Eh     change       -0.1210246E-04 Eh
 * total energy  :   -19.1100101 Eh     change       -0.3684830E-05 Eh
 * total energy  :   -19.1100160 Eh     change       -0.5871043E-05 Eh
 * total energy  :   -19.1100199 Eh     change       -0.3962128E-05 Eh
   *** GEOMETRY OPTIMIZATION CONVERGED AFTER 72 ITERATIONS ***

 final structure:
================
12
 xtb: 6.7.1 (edcfbbe)
C           -4.01295636192512        0.60272871344523        0.13015199152754
S           -2.53597037872141        1.72121203194674       -0.05479051718294
H           -3.86063536654852       -0.26284472413903       -0.50581411239861
H           -4.09304044782629        0.32542409456355        1.17338772402754
H           -4.88521720644021        1.16228642080208       -0.18913187095239
C           -1.33954896316517        0.69256590216289        0.63904683201760
H           -1.36039159466053        0.59387657904091        1.70812555716605
O           -2.27013117640870        1.81484800601875       -1.49970751379104
H           -0.39214664750108        0.61062396636482        0.14086624404658
O           -2.81942936182878       -0.65907722429042       -2.59117934943784
H           -2.51659670136214       -0.77916176422294       -3.49196559073936
H           -2.57112924501630        0.24974396924836       -2.34462670104320

          :  Hamiltonian                  GFN2-xTB          :
         :: total energy             -19.110019935130 Eh    ::
         :: gradient norm              0.000340586289 Eh/a0 ::
         :: HOMO-LUMO gap              4.588634707146 eV    ::
         :: SCC energy               -19.269708951474 Eh    ::
         :: -> dispersion             -0.006619802216 Eh    ::
         :: repulsion energy           0.159689016344 Eh    ::

    * Orbital Energies and Occupations

         #    Occupation            Energy/Eh            Energy/eV
      -------------------------------------------------------------
         1        2.0000           -0.7615101             -20.7217
       ...           ...                  ...                  ...
         5        2.0000           -0.5888595             -16.0237
         6        2.0000           -0.5445506             -14.8180
         7        2.0000           -0.5253882             -14.2965
         8        2.0000           -0.5223911             -14.2150
         9        2.0000           -0.5133373             -13.9686
        10        2.0000           -0.4983181             -13.5599
        11        2.0000           -0.4914289             -13.3725
        12        2.0000           -0.4805799             -13.0772
        13        2.0000           -0.4727687             -12.8647
        14        2.0000           -0.4228182             -11.5055
        15        2.0000           -0.4175973             -11.3634
        16        2.0000           -0.4047188             -11.0130
        17        1.0000           -0.3496288              -9.5139 (HOMO)
        18                         -0.1809996              -4.9252 (LUMO)
        19                         -0.1559295              -4.2431
        20                         -0.0641480              -1.7456
        21                          0.0287266               0.7817
        22                          0.0604771               1.6457
        23                          0.0973288               2.6485
        24                          0.1179120               3.2085
        25                          0.1585664               4.3148
        26                          0.1801412               4.9019
        27                          0.2277645               6.1978
        28                          0.2487853               6.7698
       ...                                ...                  ...
        32                          0.9082214              24.7140
      -------------------------------------------------------------
                  HL-Gap            0.1686292 Eh            4.5886 eV

     #   Z          covCN         q      C6AA      α(0)
     1   6 C        3.740    -0.139    23.253     6.880
     2  16 S        2.798     0.445   124.227    18.759
     3   1 H        0.925     0.112     1.681     2.027
     4   1 H        0.925     0.066     2.128     2.281
     5   1 H        0.925     0.073     2.054     2.241
     6   6 C        2.827    -0.155    31.987     9.267
     7   1 H        0.926     0.051     2.304     2.374
     8   8 O        0.859    -0.499    23.764     6.536
     9   1 H        0.926     0.073     2.056     2.242
    10   8 O        1.609    -0.605    25.302     6.789
    11   1 H        0.806     0.267     0.827     1.429
    12   1 H        0.804     0.310     0.691     1.306

Wiberg/Mayer (AO) data.
largest (>0.10) Wiberg bond orders for each atom

     #   Z sym  total        # sym  WBO       # sym  WBO       # sym  WBO
 ---------------------------------------------------------------------------
     1   6 C    3.964 --     4 H    0.982     5 H    0.979     3 H    0.966
                             2 S    0.870
     2  16 S    3.887 --     8 O    1.728     6 C    1.238     1 C    0.870
     3   1 H    0.987 --     1 C    0.966
     4   1 H    0.996 --     1 C    0.982
     5   1 H    0.995 --     1 C    0.979
     6   6 C    3.427 --     2 S    1.238     7 H    0.979     9 H    0.974
                             8 O    0.126
     7   1 H    0.997 --     6 C    0.979
     8   8 O    1.996 --     2 S    1.728     6 C    0.126
     9   1 H    0.995 --     6 C    0.974
    10   8 O    1.817 --    11 H    0.926    12 H    0.859
    11   1 H    0.928 --    10 O    0.926
    12   1 H    0.904 --    10 O    0.859
 ---------------------------------------------------------------------------

molecular dipole:
                 x           y           z       tot (Debye)
 q only:       -0.291       0.167       1.168
   full:       -0.109       0.128       1.046       2.693

           -------------------------------------------------
          | TOTAL ENERGY              -19.110019935130 Eh   |
          | GRADIENT NORM               0.000340586289 Eh/α |
          | HOMO-LUMO GAP               4.588634707146 eV   |
           -------------------------------------------------

 * finished run on 2025/10/18 at 18:54:53.322
