   * xtb version 6.7.1 (edcfbbe) compiled by 'albert@albert-system' on 2024-07-22

   ID    Z sym.   atoms
    1    6 C      1, 6
    2   16 S      2
    3    1 H      3-5, 7, 9, 11, 12
    4    8 O      8, 10

          program call               : xtb tb_lite_results_shiftn0p25_gp363_b0_rot0_complex.xyz --ohess --chrg -1 --alpb water
      * Solvation model:               ALPB
        Solvent                        water
        Solvent mass                       1.8000E+01 g/mol
          :  Hamiltonian                  GFN2-xTB          :
 * total energy  :   -19.4311603 Eh     change       -0.2301093E-10 Eh
 * total energy  :   -19.4433954 Eh     change       -0.1223507E-01 Eh
 * total energy  :   -19.4465437 Eh     change       -0.3148369E-02 Eh
 * total energy  :   -19.4501006 Eh     change       -0.3556848E-02 Eh
 * total energy  :   -19.4510678 Eh     change       -0.9672063E-03 Eh
 * total energy  :   -19.4523823 Eh     change       -0.1314531E-02 Eh
 * total energy  :   -19.4529505 Eh     change       -0.5681986E-03 Eh
 * total energy  :   -19.4554514 Eh     change       -0.2500888E-02 Eh
 * total energy  :   -19.4596131 Eh     change       -0.4161726E-02 Eh
 * total energy  :   -19.4682514 Eh     change       -0.8638287E-02 Eh
 * total energy  :   -19.4782291 Eh     change       -0.1799050E-03 Eh
 * total energy  :   -19.4782791 Eh     change       -0.5001652E-04 Eh
 * total energy  :   -19.4783537 Eh     change       -0.7451001E-04 Eh
 * total energy  :   -19.4783958 Eh     change       -0.4217599E-04 Eh
 * total energy  :   -19.4784221 Eh     change       -0.2629574E-04 Eh
 * total energy  :   -19.4784358 Eh     change       -0.1364177E-04 Eh
 * total energy  :   -19.4784398 Eh     change       -0.4030289E-05 Eh
 * total energy  :   -19.4784452 Eh     change       -0.5404683E-05 Eh
 * total energy  :   -19.4784473 Eh     change       -0.2053019E-05 Eh
   *** GEOMETRY OPTIMIZATION CONVERGED AFTER 32 ITERATIONS ***

 final structure:
================
12
 xtb: 6.7.1 (edcfbbe)
C           -4.02549931504623        0.57927952059149        0.06305391299527
S           -2.53718948876463        1.60329925691313        0.32182830787906
H           -3.90745805746969        0.07343555879133       -0.90566253048669
H           -4.08072671779856       -0.13788425807528        0.87125419086504
H           -4.89265460596481        1.22904988046750        0.05408208969165
C           -1.34046098974332        0.30845424916203       -0.14978702280442
H           -1.29919603280531       -0.41488657971728        0.65406388112478
O           -2.52333076172706        2.61097752229197       -0.78381709363062
H           -0.37481372660983        0.77431217515285       -0.30836357781906
O           -2.99533857601879       -0.59629333965140       -2.53298508660664
H           -1.70746024740140       -0.15213086929330       -1.07754960649661
H           -2.97306493205430        0.19461285430775       -3.09175477147281

          :  Hamiltonian                  GFN2-xTB          :
         :: gradient norm              0.000384337643 Eh/a0 ::
         :: HOMO-LUMO gap              3.411297470828 eV    ::
         :: SCC energy               -19.624386722175 Eh    ::
         :: -> dispersion             -0.007547666014 Eh    ::
         :: -> Gsolv                  -0.149968739607 Eh    ::
         :: repulsion energy           0.145939462398 Eh    ::

    * Orbital Energies and Occupations

         #    Occupation            Energy/Eh            Energy/eV
      -------------------------------------------------------------
         1        2.0000           -0.7419088             -20.1884
       ...           ...                  ...                  ...
         5        2.0000           -0.5721840             -15.5699
         6        2.0000           -0.5091284             -13.8541
         7        2.0000           -0.5039689             -13.7137
         8        2.0000           -0.5036423             -13.7048
         9        2.0000           -0.4759435             -12.9511
        10        2.0000           -0.4718740             -12.8403
        11        2.0000           -0.4604400             -12.5292
        12        2.0000           -0.4560898             -12.4108
        13        2.0000           -0.4294750             -11.6866
        14        2.0000           -0.4059395             -11.0462
        15        2.0000           -0.3826851             -10.4134
        16        2.0000           -0.3140556              -8.5459
        17        2.0000           -0.3120204              -8.4905 (HOMO)
        18                         -0.1866576              -5.0792 (LUMO)
        19                         -0.1587497              -4.3198
        20                         -0.0459615              -1.2507
        21                          0.0152683               0.4155
        22                          0.0744913               2.0270
        23                          0.1015369               2.7630
        24                          0.1503334               4.0908
        25                          0.1711304               4.6567
        26                          0.1970540               5.3621
        27                          0.2429305               6.6105
        28                          0.2554738               6.9518
       ...                                ...                  ...
        32                          0.8299344              22.5837
      -------------------------------------------------------------
                  HL-Gap            0.1253628 Eh            3.4113 eV

     #   Z          covCN         q      C6AA      α(0)
     1   6 C        3.743    -0.136    23.202     6.872
     2  16 S        2.797     0.426   124.881    18.808
     3   1 H        0.923     0.074     2.040     2.233
     4   1 H        0.926     0.083     1.945     2.181
     5   1 H        0.925     0.067     2.117     2.275
     6   6 C        3.743    -0.136    23.200     6.872
     7   1 H        0.926     0.084     1.941     2.179
     8   8 O        0.859    -0.663    27.714     7.058
     9   1 H        0.925     0.068     2.112     2.273
    10   8 O        0.804    -1.051    40.385     8.519
    11   1 H        0.924     0.074     2.042     2.235
    12   1 H        0.804     0.111     1.721     2.060

Wiberg/Mayer (AO) data.
largest (>0.10) Wiberg bond orders for each atom

     #   Z sym  total        # sym  WBO       # sym  WBO       # sym  WBO
 ---------------------------------------------------------------------------
     1   6 C    3.977 --     5 H    0.979     4 H    0.978     2 S    0.973
                             3 H    0.947
     2  16 S    3.679 --     8 O    1.672     1 C    0.973     6 C    0.973
     3   1 H    0.994 --     1 C    0.947
     4   1 H    0.993 --     1 C    0.978
     5   1 H    0.995 --     1 C    0.979
     6   6 C    3.977 --     9 H    0.979     7 H    0.978     2 S    0.973
                            11 H    0.949
     7   1 H    0.993 --     6 C    0.978
     8   8 O    1.810 --     2 S    1.672
     9   1 H    0.995 --     6 C    0.979
    10   8 O    1.107 --    12 H    0.987
    11   1 H    0.995 --     6 C    0.949
    12   1 H    0.988 --    10 O    0.987
 ---------------------------------------------------------------------------

molecular dipole:
                 x           y           z       tot (Debye)
 q only:        5.526      -0.826       5.579
   full:        5.459      -0.870       4.847      18.687

 projected vibrational frequencies (cm⁻¹)
eigval :       -0.00    -0.00    -0.00    -0.00     0.00     0.00
eigval :       71.72   110.96   173.80   244.58   260.28   295.75
eigval :      298.53   338.73   377.44   394.86   687.21   694.92
eigval :      878.21   915.91   925.46   994.13  1025.55  1286.85
eigval :     1305.65  1413.99  1427.06  1430.22  1452.88  2818.20
eigval :     2847.21  3064.70  3066.11  3083.15  3087.74  3576.87

   temp. (K)  partition function   enthalpy   heat capacity  entropy
                                   cal/mol     cal/K/mol   cal/K/mol   J/K/mol
 298.15  VIB   101.                 3421.441     21.607     20.444
         ROT  0.178E+06              888.752      2.981     27.007
         INT  0.179E+08             4310.193     24.588     47.451
         TR   0.898E+27             1481.254      4.968     39.552
         TOT                        5791.4468    29.5557    87.0026   364.0190

       T/K    H(0)-H(T)+PV         H(T)/Eh          T*S/Eh         G(T)/Eh
   ------------------------------------------------------------------------
    298.15    0.922926E-02    0.970496E-01    0.413378E-01    0.557118E-01
   ------------------------------------------------------------------------

         :::::::::::::::::::::::::::::::::::::::::::::::::::::
         ::                  THERMODYNAMIC                  ::
         :::::::::::::::::::::::::::::::::::::::::::::::::::::
         :: total free energy         -19.422735462087 Eh   ::
         ::.................................................::
         :: total energy              -19.478447259863 Eh   ::
         :: zero point energy           0.087820299394 Eh   ::
         :: G(RRHO) w/o ZPVE           -0.032108501618 Eh   ::
         :: G(RRHO) contrib.            0.055711797776 Eh   ::
         :::::::::::::::::::::::::::::::::::::::::::::::::::::

           -------------------------------------------------
          | TOTAL ENERGY              -19.478447259863 Eh   |
          | TOTAL ENTHALPY            -19.381397702493 Eh   |
          | TOTAL FREE ENERGY         -19.422735462087 Eh   |
          | GRADIENT NORM               0.000384346797 Eh/α |
          | HOMO-LUMO GAP               3.411294110440 eV   |
           -------------------------------------------------

 * finished run on 2025/10/18 at 18:53:14.591
normal termination of xtb
