   * xtb version 6.7.1 (edcfbbe) compiled by 'albert@albert-system' on 2024-07-22

   ID    Z sym.   atoms
    1    6 C      1, 6
    2   16 S      2
    3    1 H      3-5, 7, 9, 11, 12
    4    8 O      8, 10

          program call               : xtb tb_lite_results_shiftn0p3_gp363_b0_rot0_complex.xyz --ohess --chrg -1 --alpb water
      * Solvation model:               ALPB
        Solvent                        water
        Solvent mass                       1.8000E+01 g/mol
          :  Hamiltonian                  GFN2-xTB          :
 * total energy  :   -19.4306580 Eh     change       -0.2525979E-10 Eh
 * total energy  :   -19.4432626 Eh     change       -0.1260461E-01 Eh
 * total energy  :   -19.4473614 Eh     change       -0.4098865E-02 Eh
 * total energy  :   -19.4502596 Eh     change       -0.2898143E-02 Eh
 * total energy  :   -19.4512734 Eh     change       -0.1013875E-02 Eh
 * total energy  :   -19.4528572 Eh     change       -0.1583793E-02 Eh
 * total energy  :   -19.4529576 Eh     change       -0.1003607E-03 Eh
 * total energy  :   -19.4565390 Eh     change       -0.3581428E-02 Eh
 * total energy  :   -19.4609700 Eh     change       -0.4431011E-02 Eh
 * total energy  :   -19.4693712 Eh     change       -0.8401201E-02 Eh
 * total energy  :   -19.4779815 Eh     change       -0.1702348E-03 Eh
 * total energy  :   -19.4782060 Eh     change       -0.2244922E-03 Eh
 * total energy  :   -19.4781319 Eh     change        0.7409894E-04 Eh
 * total energy  :   -19.4783252 Eh     change       -0.1932468E-03 Eh
 * total energy  :   -19.4783631 Eh     change       -0.3790675E-04 Eh
 * total energy  :   -19.4784226 Eh     change       -0.5949874E-04 Eh
 * total energy  :   -19.4784316 Eh     change       -0.9028980E-05 Eh
 * total energy  :   -19.4784408 Eh     change       -0.9229202E-05 Eh
 * total energy  :   -19.4784437 Eh     change       -0.2921800E-05 Eh
   *** GEOMETRY OPTIMIZATION CONVERGED AFTER 31 ITERATIONS ***

 final structure:
================
12
 xtb: 6.7.1 (edcfbbe)
C           -4.02017162988992        0.59144663649939        0.07282517675544
S           -2.52854459955417        1.61241513564260        0.32284640099661
H           -3.90545098456280        0.08017597494341       -0.89366948924481
H           -4.07669727831472       -0.12079822190529        0.88531776445363
H           -4.88526230303983        1.24402741863371        0.06198483896363
C           -1.33581887573888        0.30850144917823       -0.13542867658105
H           -1.29921948425953       -0.40912073881492        0.67382325318306
O           -2.50975185631436        2.60829551565861       -0.79361337294364
H           -0.36862715123438        0.77015420931184       -0.29468113133179
O           -2.99836907293523       -0.59399023084141       -2.52125679482735
H           -1.70264918621886       -0.15687329254260       -1.06032320583336
H           -2.96727760837378        0.19734553610572       -3.07914657315320

          :  Hamiltonian                  GFN2-xTB          :
         :: gradient norm              0.000413926110 Eh/a0 ::
         :: HOMO-LUMO gap              3.405777336563 eV    ::
         :: SCC energy               -19.624393120569 Eh    ::
         :: -> dispersion             -0.007551027920 Eh    ::
         :: -> Gsolv                  -0.150329852464 Eh    ::
         :: repulsion energy           0.145949374795 Eh    ::

    * Orbital Energies and Occupations

         #    Occupation            Energy/Eh            Energy/eV
      -------------------------------------------------------------
         1        2.0000           -0.7419400             -20.1892
       ...           ...                  ...                  ...
         5        2.0000           -0.5720751             -15.5670
         6        2.0000           -0.5091148             -13.8537
         7        2.0000           -0.5039803             -13.7140
         8        2.0000           -0.5036811             -13.7059
         9        2.0000           -0.4759685             -12.9518
        10        2.0000           -0.4718558             -12.8399
        11        2.0000           -0.4605543             -12.5323
        12        2.0000           -0.4560593             -12.4100
        13        2.0000           -0.4293784             -11.6840
        14        2.0000           -0.4059261             -11.0458
        15        2.0000           -0.3827093             -10.4141
        16        2.0000           -0.3139278              -8.5424
        17        2.0000           -0.3119176              -8.4877 (HOMO)
        18                         -0.1867580              -5.0819 (LUMO)
        19                         -0.1589220              -4.3245
        20                         -0.0458995              -1.2490
        21                          0.0151981               0.4136
        22                          0.0743613               2.0235
        23                          0.1015189               2.7625
        24                          0.1503771               4.0920
        25                          0.1710363               4.6541
        26                          0.1970677               5.3625
        27                          0.2428683               6.6088
        28                          0.2552066               6.9445
       ...                                ...                  ...
        32                          0.8294340              22.5700
      -------------------------------------------------------------
                  HL-Gap            0.1251597 Eh            3.4058 eV

     #   Z          covCN         q      C6AA      α(0)
     1   6 C        3.743    -0.136    23.202     6.872
     2  16 S        2.797     0.427   124.866    18.807
     3   1 H        0.923     0.074     2.039     2.233
     4   1 H        0.926     0.083     1.944     2.180
     5   1 H        0.925     0.067     2.117     2.275
     6   6 C        3.743    -0.136    23.199     6.871
     7   1 H        0.926     0.084     1.938     2.177
     8   8 O        0.859    -0.663    27.727     7.060
     9   1 H        0.925     0.068     2.108     2.271
    10   8 O        0.804    -1.052    40.395     8.520
    11   1 H        0.924     0.074     2.045     2.236
    12   1 H        0.804     0.110     1.724     2.063

Wiberg/Mayer (AO) data.
largest (>0.10) Wiberg bond orders for each atom

     #   Z sym  total        # sym  WBO       # sym  WBO       # sym  WBO
 ---------------------------------------------------------------------------
     1   6 C    3.977 --     5 H    0.979     4 H    0.978     2 S    0.973
                             3 H    0.947
     2  16 S    3.679 --     8 O    1.671     1 C    0.973     6 C    0.973
     3   1 H    0.994 --     1 C    0.947
     4   1 H    0.993 --     1 C    0.978
     5   1 H    0.995 --     1 C    0.979
     6   6 C    3.977 --     9 H    0.979     7 H    0.978     2 S    0.973
                            11 H    0.950
     7   1 H    0.993 --     6 C    0.978
     8   8 O    1.810 --     2 S    1.671
     9   1 H    0.995 --     6 C    0.979
    10   8 O    1.105 --    12 H    0.987
    11   1 H    0.995 --     6 C    0.950
    12   1 H    0.988 --    10 O    0.987
 ---------------------------------------------------------------------------

molecular dipole:
                 x           y           z       tot (Debye)
 q only:        5.526      -0.818       5.583
   full:        5.459      -0.865       4.852      18.694

 projected vibrational frequencies (cm⁻¹)
eigval :       -0.00    -0.00     0.00     0.00     0.00     0.00
eigval :       72.12   109.43   172.94   244.70   259.83   295.46
eigval :      298.94   337.94   376.56   394.13   687.08   694.79
eigval :      877.86   915.38   925.08   993.78  1024.80  1286.25
eigval :     1304.93  1413.82  1426.87  1430.14  1452.61  2818.95
eigval :     2850.54  3065.59  3067.13  3083.08  3087.43  3575.71

   temp. (K)  partition function   enthalpy   heat capacity  entropy
                                   cal/mol     cal/K/mol   cal/K/mol   J/K/mol
 298.15  VIB   102.                 3425.762     21.619     20.485
         ROT  0.178E+06              888.752      2.981     27.005
         INT  0.181E+08             4314.514     24.600     47.490
         TR   0.898E+27             1481.254      4.968     39.552
         TOT                        5795.7679    29.5685    87.0418   364.1828

       T/K    H(0)-H(T)+PV         H(T)/Eh          T*S/Eh         G(T)/Eh
   ------------------------------------------------------------------------
    298.15    0.923614E-02    0.970455E-01    0.413564E-01    0.556892E-01
   ------------------------------------------------------------------------

         :::::::::::::::::::::::::::::::::::::::::::::::::::::
         ::                  THERMODYNAMIC                  ::
         :::::::::::::::::::::::::::::::::::::::::::::::::::::
         :: total free energy         -19.422754556077 Eh   ::
         ::.................................................::
         :: total energy              -19.478443745936 Eh   ::
         :: zero point energy           0.087809405135 Eh   ::
         :: G(RRHO) w/o ZPVE           -0.032120215276 Eh   ::
         :: G(RRHO) contrib.            0.055689189859 Eh   ::
         :::::::::::::::::::::::::::::::::::::::::::::::::::::

           -------------------------------------------------
          | TOTAL ENERGY              -19.478443745936 Eh   |
          | TOTAL ENTHALPY            -19.381398196705 Eh   |
          | TOTAL FREE ENERGY         -19.422754556077 Eh   |
          | GRADIENT NORM               0.000413823622 Eh/α |
          | HOMO-LUMO GAP               3.405767701978 eV   |
           -------------------------------------------------

 * finished run on 2025/10/18 at 18:53:26.585
normal termination of xtb
