   * xtb version 6.7.1 (edcfbbe) compiled by 'albert@albert-system' on 2024-07-22

   ID    Z sym.   atoms
    1    6 C      1, 6
    2   16 S      2
    3    1 H      3-5, 7, 9, 11, 12
    4    8 O      8, 10

          program call               : xtb tb_lite_results_shiftn0p2_gp363_b0_rot0_complex.xyz --ohess --chrg -1 --alpb water
      * Solvation model:               ALPB
        Solvent                        water
        Solvent mass                       1.8000E+01 g/mol
          :  Hamiltonian                  GFN2-xTB          :
 * total energy  :   -19.4314034 Eh     change       -0.2111022E-10 Eh
 * total energy  :   -19.4434871 Eh     change       -0.1208369E-01 Eh
 * total energy  :   -19.4458130 Eh     change       -0.2325923E-02 Eh
 * total energy  :   -19.4499563 Eh     change       -0.4143277E-02 Eh
 * total energy  :   -19.4509015 Eh     change       -0.9451726E-03 Eh
 * total energy  :   -19.4520617 Eh     change       -0.1160188E-02 Eh
 * total energy  :   -19.4527531 Eh     change       -0.6914683E-03 Eh
 * total energy  :   -19.4547775 Eh     change       -0.2024359E-02 Eh
 * total energy  :   -19.4587028 Eh     change       -0.3925322E-02 Eh
 * total energy  :   -19.4665453 Eh     change       -0.7842456E-02 Eh
 * total energy  :   -19.4779326 Eh     change       -0.1797472E-03 Eh
 * total energy  :   -19.4781620 Eh     change       -0.2294213E-03 Eh
 * total energy  :   -19.4781744 Eh     change       -0.1241218E-04 Eh
 * total energy  :   -19.4783128 Eh     change       -0.1384512E-03 Eh
 * total energy  :   -19.4783644 Eh     change       -0.5156205E-04 Eh
 * total energy  :   -19.4784175 Eh     change       -0.5306408E-04 Eh
 * total energy  :   -19.4784309 Eh     change       -0.1342695E-04 Eh
 * total energy  :   -19.4784400 Eh     change       -0.9094681E-05 Eh
 * total energy  :   -19.4784431 Eh     change       -0.3085608E-05 Eh
   *** GEOMETRY OPTIMIZATION CONVERGED AFTER 31 ITERATIONS ***

 final structure:
================
12
 xtb: 6.7.1 (edcfbbe)
C           -4.02748178519557        0.59224260441349        0.05521478418253
S           -2.53189382011549        1.61187182410730        0.28735694987441
H           -3.91776272714001        0.06941126691792       -0.90589272513893
H           -4.08277188671351       -0.11034835398243        0.87630314757884
H           -4.89080466013578        1.24708105897722        0.03989609440961
C           -1.34483390425840        0.29839521227314       -0.15826932089521
H           -1.30917388773507       -0.40996467158201        0.65919583812363
O           -2.51376695134702        2.59317475320643       -0.84205707818040
H           -0.37617771224249        0.75457126136416       -0.32407212907927
O           -3.02003107110051       -0.62244505057860       -2.52856256827769
H           -1.71553939817106       -0.17583001969701       -1.07701354979181
H           -2.98630906821636        0.16471266459276       -3.09205224676432

          :  Hamiltonian                  GFN2-xTB          :
         :: gradient norm              0.000493746766 Eh/a0 ::
         :: HOMO-LUMO gap              3.405736130833 eV    ::
         :: SCC energy               -19.624352387897 Eh    ::
         :: -> dispersion             -0.007554239454 Eh    ::
         :: -> Gsolv                  -0.150374667159 Eh    ::
         :: repulsion energy           0.145909317255 Eh    ::

    * Orbital Energies and Occupations

         #    Occupation            Energy/Eh            Energy/eV
      -------------------------------------------------------------
         1        2.0000           -0.7419258             -20.1888
       ...           ...                  ...                  ...
         5        2.0000           -0.5721038             -15.5677
         6        2.0000           -0.5090955             -13.8532
         7        2.0000           -0.5039686             -13.7137
         8        2.0000           -0.5036539             -13.7051
         9        2.0000           -0.4759523             -12.9513
        10        2.0000           -0.4718133             -12.8387
        11        2.0000           -0.4605798             -12.5330
        12        2.0000           -0.4560335             -12.4093
        13        2.0000           -0.4293989             -11.6845
        14        2.0000           -0.4059064             -11.0453
        15        2.0000           -0.3827079             -10.4140
        16        2.0000           -0.3139533              -8.5431
        17        2.0000           -0.3119366              -8.4882 (HOMO)
        18                         -0.1867784              -5.0825 (LUMO)
        19                         -0.1589622              -4.3256
        20                         -0.0458778              -1.2484
        21                          0.0151606               0.4125
        22                          0.0743196               2.0223
        23                          0.1014709               2.7612
        24                          0.1503619               4.0916
        25                          0.1709779               4.6525
        26                          0.1971241               5.3640
        27                          0.2427963               6.6068
        28                          0.2550771               6.9410
       ...                                ...                  ...
        32                          0.8292072              22.5639
      -------------------------------------------------------------
                  HL-Gap            0.1251583 Eh            3.4057 eV

     #   Z          covCN         q      C6AA      α(0)
     1   6 C        3.743    -0.136    23.203     6.872
     2  16 S        2.797     0.427   124.866    18.807
     3   1 H        0.923     0.074     2.038     2.233
     4   1 H        0.926     0.083     1.945     2.181
     5   1 H        0.925     0.067     2.118     2.276
     6   6 C        3.743    -0.136    23.199     6.871
     7   1 H        0.926     0.084     1.937     2.177
     8   8 O        0.859    -0.664    27.732     7.060
     9   1 H        0.925     0.068     2.107     2.270
    10   8 O        0.804    -1.051    40.391     8.519
    11   1 H        0.924     0.074     2.045     2.236
    12   1 H        0.804     0.110     1.724     2.062

Wiberg/Mayer (AO) data.
largest (>0.10) Wiberg bond orders for each atom

     #   Z sym  total        # sym  WBO       # sym  WBO       # sym  WBO
 ---------------------------------------------------------------------------
     1   6 C    3.977 --     5 H    0.979     4 H    0.978     2 S    0.973
                             3 H    0.947
     2  16 S    3.679 --     8 O    1.671     1 C    0.973     6 C    0.973
     3   1 H    0.994 --     1 C    0.947
     4   1 H    0.993 --     1 C    0.978
     5   1 H    0.996 --     1 C    0.979
     6   6 C    3.977 --     9 H    0.979     7 H    0.978     2 S    0.973
                            11 H    0.950
     7   1 H    0.993 --     6 C    0.978
     8   8 O    1.810 --     2 S    1.671
     9   1 H    0.995 --     6 C    0.979
    10   8 O    1.106 --    12 H    0.987
    11   1 H    0.995 --     6 C    0.950
    12   1 H    0.988 --    10 O    0.987
 ---------------------------------------------------------------------------

molecular dipole:
                 x           y           z       tot (Debye)
 q only:        5.564      -0.753       5.622
   full:        5.495      -0.807       4.893      18.814

 projected vibrational frequencies (cm⁻¹)
eigval :       -0.00    -0.00    -0.00    -0.00     0.00     0.00
eigval :       72.69   109.54   173.50   243.59   259.47   294.26
eigval :      299.50   337.85   377.01   394.35   687.06   694.62
eigval :      877.89   915.56   925.17   993.75  1024.51  1285.98
eigval :     1304.70  1413.81  1426.92  1429.99  1452.41  2817.15
eigval :     2850.45  3065.62  3067.25  3082.47  3086.69  3576.75

   temp. (K)  partition function   enthalpy   heat capacity  entropy
                                   cal/mol     cal/K/mol   cal/K/mol   J/K/mol
 298.15  VIB   101.                 3425.842     21.626     20.479
         ROT  0.178E+06              888.752      2.981     27.003
         INT  0.180E+08             4314.594     24.607     47.483
         TR   0.898E+27             1481.254      4.968     39.552
         TOT                        5795.8481    29.5753    87.0345   364.1523

       T/K    H(0)-H(T)+PV         H(T)/Eh          T*S/Eh         G(T)/Eh
   ------------------------------------------------------------------------
    298.15    0.923627E-02    0.970380E-01    0.413529E-01    0.556851E-01
   ------------------------------------------------------------------------

         :::::::::::::::::::::::::::::::::::::::::::::::::::::
         ::                  THERMODYNAMIC                  ::
         :::::::::::::::::::::::::::::::::::::::::::::::::::::
         :: total free energy         -19.422757934001 Eh   ::
         ::.................................................::
         :: total energy              -19.478443070702 Eh   ::
         :: zero point energy           0.087801753745 Eh   ::
         :: G(RRHO) w/o ZPVE           -0.032116617044 Eh   ::
         :: G(RRHO) contrib.            0.055685136701 Eh   ::
         :::::::::::::::::::::::::::::::::::::::::::::::::::::

           -------------------------------------------------
          | TOTAL ENERGY              -19.478443070702 Eh   |
          | TOTAL ENTHALPY            -19.381405045068 Eh   |
          | TOTAL FREE ENERGY         -19.422757934001 Eh   |
          | GRADIENT NORM               0.000493789897 Eh/α |
          | HOMO-LUMO GAP               3.405729608059 eV   |
           -------------------------------------------------

 * finished run on 2025/10/18 at 18:53:18.352
normal termination of xtb
