   * xtb version 6.7.1 (edcfbbe) compiled by 'albert@albert-system' on 2024-07-22

   ID    Z sym.   atoms
    1    6 C      1, 6
    2   16 S      2
    3    1 H      3-5, 7, 9, 11, 12
    4    8 O      8, 10

          program call               : xtb tb_lite_results_shiftn0p25_gp356_b0_rot0_complex.xyz --ohess --chrg -1 --alpb water
      * Solvation model:               ALPB
        Solvent                        water
        Solvent mass                       1.8000E+01 g/mol
          :  Hamiltonian                  GFN2-xTB          :
 * total energy  :   -19.4314629 Eh     change       -0.2293987E-10 Eh
 * total energy  :   -19.4433561 Eh     change       -0.1189328E-01 Eh
 * total energy  :   -19.4457257 Eh     change       -0.2369587E-02 Eh
 * total energy  :   -19.4493202 Eh     change       -0.3594476E-02 Eh
 * total energy  :   -19.4499677 Eh     change       -0.6475113E-03 Eh
 * total energy  :   -19.4508493 Eh     change       -0.8815425E-03 Eh
 * total energy  :   -19.4513166 Eh     change       -0.4673541E-03 Eh
 * total energy  :   -19.4531255 Eh     change       -0.1808847E-02 Eh
 * total energy  :   -19.4478143 Eh     change        0.5311126E-02 Eh
 * total energy  :   -19.4580453 Eh     change       -0.1023099E-01 Eh
 * total energy  :   -19.4780970 Eh     change       -0.3814259E-03 Eh
 * total energy  :   -19.4780098 Eh     change        0.8721244E-04 Eh
 * total energy  :   -19.4782923 Eh     change       -0.2825575E-03 Eh
 * total energy  :   -19.4783413 Eh     change       -0.4899321E-04 Eh
 * total energy  :   -19.4783925 Eh     change       -0.5118132E-04 Eh
 * total energy  :   -19.4784199 Eh     change       -0.2741580E-04 Eh
 * total energy  :   -19.4784437 Eh     change       -0.2376353E-04 Eh
 * total energy  :   -19.4784509 Eh     change       -0.7219148E-05 Eh
 * total energy  :   -19.4784527 Eh     change       -0.1761579E-05 Eh
   *** GEOMETRY OPTIMIZATION CONVERGED AFTER 32 ITERATIONS ***

 final structure:
================
12
 xtb: 6.7.1 (edcfbbe)
C           -3.97652235957773        0.49494487220602        0.02314628531475
S           -2.53038900007458        1.60697434937461        0.07725520856221
H           -3.78853568257259       -0.24637552364115       -0.76648936683169
H           -4.06522831567470        0.01741627540861        0.99011209840858
H           -4.85552721320461        1.08655724889761       -0.20480784554833
C           -1.27698063910830        0.28069052843838        0.03364532183622
H           -1.26213761543081       -0.19580451097630        1.00497223942663
O           -2.47127779375108        2.28294438306191       -1.25623072612386
H           -0.31680719188271        0.72523333692912       -0.20032542057416
O           -2.75629426745960       -1.30862069193215       -2.08712341876047
H           -1.57918588208439       -0.42823884039851       -0.74991696143921
H           -2.69889621176086       -0.72099650764877       -2.85428207176717

          :  Hamiltonian                  GFN2-xTB          :
         :: gradient norm              0.000481850088 Eh/a0 ::
         :: HOMO-LUMO gap              3.408288734222 eV    ::
         :: SCC energy               -19.624411217451 Eh    ::
         :: -> dispersion             -0.007537957852 Eh    ::
         :: -> Gsolv                  -0.149703667323 Eh    ::
         :: repulsion energy           0.145958565572 Eh    ::

    * Orbital Energies and Occupations

         #    Occupation            Energy/Eh            Energy/eV
      -------------------------------------------------------------
         1        2.0000           -0.7418358             -20.1864
       ...           ...                  ...                  ...
         5        2.0000           -0.5721523             -15.5691
         6        2.0000           -0.5090214             -13.8512
         7        2.0000           -0.5038973             -13.7117
         8        2.0000           -0.5035694             -13.7028
         9        2.0000           -0.4758675             -12.9490
        10        2.0000           -0.4718222             -12.8389
        11        2.0000           -0.4603067             -12.5256
        12        2.0000           -0.4560683             -12.4103
        13        2.0000           -0.4293567             -11.6834
        14        2.0000           -0.4058269             -11.0431
        15        2.0000           -0.3826373             -10.4121
        16        2.0000           -0.3140042              -8.5445
        17        2.0000           -0.3119455              -8.4885 (HOMO)
        18                         -0.1866936              -5.0802 (LUMO)
        19                         -0.1587879              -4.3208
        20                         -0.0458008              -1.2463
        21                          0.0153718               0.4183
        22                          0.0746029               2.0300
        23                          0.1015189               2.7625
        24                          0.1501953               4.0870
        25                          0.1710128               4.6535
        26                          0.1975638               5.3760
        27                          0.2429864               6.6120
        28                          0.2557562               6.9595
       ...                                ...                  ...
        32                          0.8293904              22.5689
      -------------------------------------------------------------
                  HL-Gap            0.1252520 Eh            3.4083 eV

     #   Z          covCN         q      C6AA      α(0)
     1   6 C        3.743    -0.136    23.201     6.872
     2  16 S        2.797     0.426   124.889    18.809
     3   1 H        0.923     0.074     2.040     2.234
     4   1 H        0.926     0.083     1.947     2.182
     5   1 H        0.925     0.067     2.114     2.274
     6   6 C        3.743    -0.136    23.202     6.872
     7   1 H        0.926     0.083     1.945     2.181
     8   8 O        0.859    -0.663    27.711     7.058
     9   1 H        0.925     0.067     2.116     2.275
    10   8 O        0.804    -1.051    40.391     8.519
    11   1 H        0.923     0.074     2.040     2.233
    12   1 H        0.804     0.111     1.717     2.058

Wiberg/Mayer (AO) data.
largest (>0.10) Wiberg bond orders for each atom

     #   Z sym  total        # sym  WBO       # sym  WBO       # sym  WBO
 ---------------------------------------------------------------------------
     1   6 C    3.977 --     5 H    0.979     4 H    0.978     2 S    0.973
                             3 H    0.948
     2  16 S    3.679 --     8 O    1.671     1 C    0.973     6 C    0.973
     3   1 H    0.994 --     1 C    0.948
     4   1 H    0.993 --     1 C    0.978
     5   1 H    0.995 --     1 C    0.979
     6   6 C    3.977 --     9 H    0.979     7 H    0.978     2 S    0.973
                            11 H    0.948
     7   1 H    0.993 --     6 C    0.978
     8   8 O    1.810 --     2 S    1.671
     9   1 H    0.995 --     6 C    0.979
    10   8 O    1.107 --    12 H    0.987
    11   1 H    0.994 --     6 C    0.948
    12   1 H    0.988 --    10 O    0.987
 ---------------------------------------------------------------------------

molecular dipole:
                 x           y           z       tot (Debye)
 q only:        5.071       0.791       5.218
   full:        5.056       0.545       4.521      17.295

 projected vibrational frequencies (cm⁻¹)
eigval :       -0.00    -0.00    -0.00    -0.00     0.00     0.00
eigval :       69.38   111.95   174.01   233.20   253.79   281.44
eigval :      297.78   335.69   375.56   395.92   686.96   695.03
eigval :      879.03   916.53   925.29   994.43  1024.99  1286.86
eigval :     1305.51  1414.06  1427.10  1430.31  1453.18  2816.98
eigval :     2845.66  3064.72  3066.30  3083.02  3087.21  3584.22

   temp. (K)  partition function   enthalpy   heat capacity  entropy
                                   cal/mol     cal/K/mol   cal/K/mol   J/K/mol
 298.15  VIB   110.                 3453.683     21.650     20.699
         ROT  0.178E+06              888.752      2.981     27.011
         INT  0.196E+08             4342.435     24.631     47.710
         TR   0.898E+27             1481.254      4.968     39.552
         TOT                        5823.6889    29.5991    87.2619   365.1039

       T/K    H(0)-H(T)+PV         H(T)/Eh          T*S/Eh         G(T)/Eh
   ------------------------------------------------------------------------
    298.15    0.928064E-02    0.970268E-01    0.414610E-01    0.555659E-01
   ------------------------------------------------------------------------

         :::::::::::::::::::::::::::::::::::::::::::::::::::::
         ::                  THERMODYNAMIC                  ::
         :::::::::::::::::::::::::::::::::::::::::::::::::::::
         :: total free energy         -19.422886801688 Eh   ::
         ::.................................................::
         :: total energy              -19.478452652435 Eh   ::
         :: zero point energy           0.087746167551 Eh   ::
         :: G(RRHO) w/o ZPVE           -0.032180316804 Eh   ::
         :: G(RRHO) contrib.            0.055565850747 Eh   ::
         :::::::::::::::::::::::::::::::::::::::::::::::::::::

           -------------------------------------------------
          | TOTAL ENERGY              -19.478452652435 Eh   |
          | TOTAL ENTHALPY            -19.381425845906 Eh   |
          | TOTAL FREE ENERGY         -19.422886801688 Eh   |
          | GRADIENT NORM               0.000482046234 Eh/α |
          | HOMO-LUMO GAP               3.408279662557 eV   |
           -------------------------------------------------

 * finished run on 2025/10/18 at 18:53:21.571
normal termination of xtb
