   * xtb version 6.7.1 (edcfbbe) compiled by 'albert@albert-system' on 2024-07-22

   ID    Z sym.   atoms
    1    6 C      1, 6
    2   16 S      2
    3    1 H      3-5, 7, 9
    4    8 O      8

          program call               : xtb tb_lite_results_shiftn0p2_gp363_b0_rot0_solute.xyz --ohess --chrg -1
          :  Hamiltonian                  GFN2-xTB          :
 * total energy  :   -14.2375148 Eh     change       -0.9563905E-11 Eh
 * total energy  :   -14.2456324 Eh     change       -0.8117540E-02 Eh
 * total energy  :   -14.2464481 Eh     change       -0.8157535E-03 Eh
 * total energy  :   -14.2481565 Eh     change       -0.1708370E-02 Eh
 * total energy  :   -14.2483132 Eh     change       -0.1567156E-03 Eh
 * total energy  :   -14.2484176 Eh     change       -0.1043616E-03 Eh
 * total energy  :   -14.2484464 Eh     change       -0.2880120E-04 Eh
 * total energy  :   -14.2484579 Eh     change       -0.1154386E-04 Eh
 * total energy  :   -14.2484607 Eh     change       -0.2763848E-05 Eh
   *** GEOMETRY OPTIMIZATION CONVERGED AFTER 9 ITERATIONS ***

 final structure:
================
9
 xtb: 6.7.1 (edcfbbe)
C           -4.10306201080633        0.63205783932251        0.09639602095058
S           -2.45359241329298        1.55276082194280        0.38833798762063
H           -4.12362158365567        0.30803401216162       -0.93803818232316
H           -4.11754955852762       -0.22489617051838        0.76266051126234
H           -4.93391777818963        1.29949197415765        0.31374847159545
C           -1.41284900329185        0.28360375525430       -0.22003690292229
H           -1.09159546909668       -0.27354548724010        0.68401387624607
O           -2.46552542943559        2.64904560648959       -0.63948355951391
H           -0.52348487809928        0.78571268236444       -0.62786022415064

          :  Hamiltonian                  GFN2-xTB          :
         :: gradient norm              0.000477855627 Eh/a0 ::
         :: HOMO-LUMO gap              3.143309188439 eV    ::
         :: SCC energy               -14.359268323777 Eh    ::
         :: -> dispersion             -0.005891453422 Eh    ::
         :: repulsion energy           0.110807631779 Eh    ::

    * Orbital Energies and Occupations

         #    Occupation            Energy/Eh            Energy/eV
      -------------------------------------------------------------
         1        2.0000           -0.5177407             -14.0884
         2        2.0000           -0.4267396             -11.6122
         3        2.0000           -0.4130105             -11.2386
         4        2.0000           -0.3373083              -9.1786
         5        2.0000           -0.3182954              -8.6613
         6        2.0000           -0.3161189              -8.6020
         7        2.0000           -0.2958170              -8.0496
         8        2.0000           -0.2671295              -7.2690
         9        2.0000           -0.2579893              -7.0202
        10        2.0000           -0.2235899              -6.0842
        11        2.0000           -0.1894222              -5.1544
        12        2.0000           -0.1676659              -4.5624
        13        2.0000           -0.0977725              -2.6605 (HOMO)
        14                          0.0177420               0.4828 (LUMO)
        15                          0.0701147               1.9079
        16                          0.1644209               4.4741
        17                          0.2311625               6.2903
        18                          0.2798720               7.6157
        19                          0.2891067               7.8670
        20                          0.3272268               8.9043
        21                          0.3894532              10.5976
        22                          0.4058972              11.0450
        23                          0.4078295              11.0976
        24                          0.4602929              12.5252
       ...                                ...                  ...
        26                          1.0235714              27.8528
      -------------------------------------------------------------
                  HL-Gap            0.1155146 Eh            3.1433 eV

     #   Z          covCN         q      C6AA      α(0)
     1   6 C        3.730    -0.091    22.343     6.748
     2  16 S        2.790     0.077   137.944    19.768
     3   1 H        0.925     0.020     2.736     2.587
     4   1 H        0.925    -0.003     3.109     2.757
     5   1 H        0.925    -0.006     3.162     2.781
     6   6 C        2.818    -0.250    34.755     9.659
     7   1 H        0.923    -0.114     6.074     3.854
     8   8 O        0.859    -0.553    24.999     6.704
     9   1 H        0.924    -0.080     4.909     3.465

Wiberg/Mayer (AO) data.
largest (>0.10) Wiberg bond orders for each atom

     #   Z sym  total        # sym  WBO       # sym  WBO       # sym  WBO
 ---------------------------------------------------------------------------
     1   6 C    3.987 --     4 H    0.991     5 H    0.990     3 H    0.989
                             2 S    0.876
     2  16 S    3.866 --     8 O    1.720     6 C    1.225     1 C    0.876
     3   1 H    1.000 --     1 C    0.989
     4   1 H    1.000 --     1 C    0.991
     5   1 H    1.000 --     1 C    0.990
     6   6 C    3.288 --     2 S    1.225     7 H    0.961     9 H    0.960
     7   1 H    0.987 --     6 C    0.961
     8   8 O    1.874 --     2 S    1.720
     9   1 H    0.994 --     6 C    0.960
 ---------------------------------------------------------------------------

molecular dipole:
                 x           y           z       tot (Debye)
 q only:        3.832      -2.848       0.717
   full:        3.875      -2.904       0.717      12.441

 projected vibrational frequencies (cm⁻¹)
eigval :       -0.00    -0.00     0.00     0.00     0.00     0.00
eigval :       58.22   111.58   276.66   305.14   371.08   525.85
eigval :      732.24   803.74   824.59   917.02  1013.46  1061.62
eigval :     1229.60  1465.45  1467.56  1474.43  2737.67  2840.83
eigval :     3000.35  3030.40  3045.47

   temp. (K)  partition function   enthalpy   heat capacity  entropy
                                   cal/mol     cal/K/mol   cal/K/mol   J/K/mol
 298.15  VIB   24.9                 2092.294     13.253     12.989
         ROT  0.595E+05              888.752      2.981     24.828
         INT  0.148E+07             2981.046     16.234     37.816
         TR   0.655E+27             1481.254      4.968     38.926
         TOT                        4462.3000    21.2018    76.7426   321.0911

       T/K    H(0)-H(T)+PV         H(T)/Eh          T*S/Eh         G(T)/Eh
   ------------------------------------------------------------------------
    298.15    0.711113E-02    0.692891E-01    0.364629E-01    0.328262E-01
   ------------------------------------------------------------------------

         :::::::::::::::::::::::::::::::::::::::::::::::::::::
         ::                  THERMODYNAMIC                  ::
         :::::::::::::::::::::::::::::::::::::::::::::::::::::
         :: total free energy         -14.215634512431 Eh   ::
         ::.................................................::
         :: total energy              -14.248460691999 Eh   ::
         :: zero point energy           0.062177944263 Eh   ::
         :: G(RRHO) w/o ZPVE           -0.029351764696 Eh   ::
         :: G(RRHO) contrib.            0.032826179567 Eh   ::
         :::::::::::::::::::::::::::::::::::::::::::::::::::::

           -------------------------------------------------
          | TOTAL ENERGY              -14.248460691999 Eh   |
          | TOTAL ENTHALPY            -14.179171619975 Eh   |
          | TOTAL FREE ENERGY         -14.215634512431 Eh   |
          | GRADIENT NORM               0.000477777454 Eh/α |
          | HOMO-LUMO GAP               3.143311425625 eV   |
           -------------------------------------------------

 * finished run on 2025/10/18 at 18:53:19.427
normal termination of xtb
