   * xtb version 6.7.1 (edcfbbe) compiled by 'albert@albert-system' on 2024-07-22

   ID    Z sym.   atoms
    1    6 C      1, 6
    2   16 S      2
    3    1 H      3-5, 7, 9, 11, 12
    4    8 O      8, 10

          program call               : xtb tb_lite_results_shiftn0p15_gp363_b0_rot0_complex.xyz --ohess --chrg -1 --alpb water
      * Solvation model:               ALPB
        Solvent                        water
        Solvent mass                       1.8000E+01 g/mol
          :  Hamiltonian                  GFN2-xTB          :
 * total energy  :   -19.4314484 Eh     change       -0.1736566E-10 Eh
 * total energy  :   -19.4435248 Eh     change       -0.1207638E-01 Eh
 * total energy  :   -19.4451357 Eh     change       -0.1610879E-02 Eh
 * total energy  :   -19.4498143 Eh     change       -0.4678649E-02 Eh
 * total energy  :   -19.4507490 Eh     change       -0.9347146E-03 Eh
 * total energy  :   -19.4518640 Eh     change       -0.1114986E-02 Eh
 * total energy  :   -19.4524777 Eh     change       -0.6136821E-03 Eh
 * total energy  :   -19.4543369 Eh     change       -0.1859206E-02 Eh
 * total energy  :   -19.4577047 Eh     change       -0.3367754E-02 Eh
 * total energy  :   -19.4652804 Eh     change       -0.7575745E-02 Eh
 * total energy  :   -19.4778501 Eh     change       -0.1282664E-03 Eh
 * total energy  :   -19.4780696 Eh     change       -0.2195239E-03 Eh
 * total energy  :   -19.4782579 Eh     change       -0.1882981E-03 Eh
 * total energy  :   -19.4783271 Eh     change       -0.6921925E-04 Eh
 * total energy  :   -19.4783815 Eh     change       -0.5436653E-04 Eh
 * total energy  :   -19.4784123 Eh     change       -0.3085070E-04 Eh
 * total energy  :   -19.4784318 Eh     change       -0.1951232E-04 Eh
 * total energy  :   -19.4784404 Eh     change       -0.8578407E-05 Eh
 * total energy  :   -19.4784439 Eh     change       -0.3464189E-05 Eh
   *** GEOMETRY OPTIMIZATION CONVERGED AFTER 31 ITERATIONS ***

 final structure:
================
12
 xtb: 6.7.1 (edcfbbe)
C           -4.03153471434754        0.59400179884223        0.04922455947159
S           -2.53205386131047        1.61088522499851        0.27076431811929
H           -3.92729543110958        0.06614722377633       -0.90977362398488
H           -4.08497195822710       -0.10432630808971        0.87408670725164
H           -4.89322179881575        1.25108675035983        0.03460505090473
C           -1.35027613971431        0.29163978881890       -0.17207141386986
H           -1.31339948308312       -0.41245551926035        0.64891133828669
O           -2.51507431880962        2.58618522270037       -0.86399571930085
H           -0.38094538499110        0.74430019525140       -0.34415421246318
O           -3.02919953568694       -0.63583471330499       -2.53344693813484
H           -1.72564589947216       -0.18615072909167       -1.08712702407791
H           -2.99228176777105        0.14804019408295       -3.10129134335835

          :  Hamiltonian                  GFN2-xTB          :
         :: gradient norm              0.000593004899 Eh/a0 ::
         :: HOMO-LUMO gap              3.403706902301 eV    ::
         :: SCC energy               -19.624299657394 Eh    ::
         :: -> dispersion             -0.007554103303 Eh    ::
         :: -> Gsolv                  -0.150423362836 Eh    ::
         :: repulsion energy           0.145855785014 Eh    ::

    * Orbital Energies and Occupations

         #    Occupation            Energy/Eh            Energy/eV
      -------------------------------------------------------------
         1        2.0000           -0.7419214             -20.1887
       ...           ...                  ...                  ...
         5        2.0000           -0.5720798             -15.5671
         6        2.0000           -0.5090810             -13.8528
         7        2.0000           -0.5039477             -13.7131
         8        2.0000           -0.5036350             -13.7046
         9        2.0000           -0.4759424             -12.9511
        10        2.0000           -0.4718170             -12.8388
        11        2.0000           -0.4605778             -12.5330
        12        2.0000           -0.4560383             -12.4094
        13        2.0000           -0.4293745             -11.6839
        14        2.0000           -0.4058988             -11.0451
        15        2.0000           -0.3827154             -10.4142
        16        2.0000           -0.3139259              -8.5424
        17        2.0000           -0.3119149              -8.4876 (HOMO)
        18                         -0.1868311              -5.0839 (LUMO)
        19                         -0.1590092              -4.3269
        20                         -0.0459910              -1.2515
        21                          0.0150979               0.4108
        22                          0.0742987               2.0218
        23                          0.1014398               2.7603
        24                          0.1502882               4.0895
        25                          0.1708863               4.6501
        26                          0.1971165               5.3638
        27                          0.2426991               6.6042
        28                          0.2550573               6.9405
       ...                                ...                  ...
        32                          0.8288552              22.5543
      -------------------------------------------------------------
                  HL-Gap            0.1250837 Eh            3.4037 eV

     #   Z          covCN         q      C6AA      α(0)
     1   6 C        3.743    -0.136    23.202     6.872
     2  16 S        2.797     0.427   124.862    18.807
     3   1 H        0.923     0.074     2.040     2.234
     4   1 H        0.926     0.083     1.943     2.180
     5   1 H        0.925     0.067     2.115     2.274
     6   6 C        3.743    -0.136    23.199     6.871
     7   1 H        0.926     0.084     1.938     2.177
     8   8 O        0.859    -0.664    27.734     7.061
     9   1 H        0.925     0.068     2.110     2.271
    10   8 O        0.804    -1.051    40.393     8.519
    11   1 H        0.924     0.074     2.043     2.235
    12   1 H        0.804     0.110     1.725     2.063

Wiberg/Mayer (AO) data.
largest (>0.10) Wiberg bond orders for each atom

     #   Z sym  total        # sym  WBO       # sym  WBO       # sym  WBO
 ---------------------------------------------------------------------------
     1   6 C    3.977 --     5 H    0.979     4 H    0.978     2 S    0.973
                             3 H    0.948
     2  16 S    3.678 --     8 O    1.671     1 C    0.973     6 C    0.973
     3   1 H    0.994 --     1 C    0.948
     4   1 H    0.993 --     1 C    0.978
     5   1 H    0.995 --     1 C    0.979
     6   6 C    3.977 --     9 H    0.979     7 H    0.978     2 S    0.973
                            11 H    0.949
     7   1 H    0.993 --     6 C    0.978
     8   8 O    1.809 --     2 S    1.671
     9   1 H    0.995 --     6 C    0.979
    10   8 O    1.105 --    12 H    0.987
    11   1 H    0.995 --     6 C    0.949
    12   1 H    0.988 --    10 O    0.987
 ---------------------------------------------------------------------------

molecular dipole:
                 x           y           z       tot (Debye)
 q only:        5.579      -0.722       5.643
   full:        5.509      -0.780       4.914      18.868

 projected vibrational frequencies (cm⁻¹)
eigval :       -0.00    -0.00    -0.00     0.00     0.00     0.00
eigval :       75.90   109.42   173.32   243.60   258.69   293.25
eigval :      299.70   337.97   377.15   394.67   686.90   694.32
eigval :      877.85   915.47   924.97   993.60  1024.16  1285.83
eigval :     1304.45  1413.63  1426.74  1430.05  1452.47  2817.61
eigval :     2849.47  3065.15  3066.46  3082.54  3086.63  3576.79

   temp. (K)  partition function   enthalpy   heat capacity  entropy
                                   cal/mol     cal/K/mol   cal/K/mol   J/K/mol
 298.15  VIB   98.0                 3423.295     21.652     20.436
         ROT  0.178E+06              888.752      2.981     27.004
         INT  0.174E+08             4312.047     24.633     47.440
         TR   0.898E+27             1481.254      4.968     39.552
         TOT                        5793.3013    29.6015    86.9911   363.9709

       T/K    H(0)-H(T)+PV         H(T)/Eh          T*S/Eh         G(T)/Eh
   ------------------------------------------------------------------------
    298.15    0.923221E-02    0.970299E-01    0.413323E-01    0.556976E-01
   ------------------------------------------------------------------------

         :::::::::::::::::::::::::::::::::::::::::::::::::::::
         ::                  THERMODYNAMIC                  ::
         :::::::::::::::::::::::::::::::::::::::::::::::::::::
         :: total free energy         -19.422746235728 Eh   ::
         ::.................................................::
         :: total energy              -19.478443872264 Eh   ::
         :: zero point energy           0.087797716357 Eh   ::
         :: G(RRHO) w/o ZPVE           -0.032100079822 Eh   ::
         :: G(RRHO) contrib.            0.055697636535 Eh   ::
         :::::::::::::::::::::::::::::::::::::::::::::::::::::

           -------------------------------------------------
          | TOTAL ENERGY              -19.478443872264 Eh   |
          | TOTAL ENTHALPY            -19.381413942606 Eh   |
          | TOTAL FREE ENERGY         -19.422746235728 Eh   |
          | GRADIENT NORM               0.000593037539 Eh/α |
          | HOMO-LUMO GAP               3.403702080339 eV   |
           -------------------------------------------------

 * finished run on 2025/10/18 at 18:53:23.801
normal termination of xtb
