                         Program Version 5.0.4 -  RELEASE  -
|  1> !OPT PBE def2-TZVP CPCM(water)
|  2>
|  3> *xyz -1 1
|  4> C     -3.825632   -4.084550    1.870483
|  5> C     -2.915819   -3.078776    2.591667
|  6> H     -3.527946   -4.232496    0.823855
|  7> H     -3.816839   -5.069668    2.355567
|  8> H     -4.865096   -3.734460    1.865671
|  9> C     -3.371687   -2.911310    4.048910
| 10> H     -4.402046   -2.537760    4.093316
| 11> C     -2.957959   -1.723247    1.870424
| 12> H     -3.346323   -3.860512    4.600427
| 13> H     -2.743421   -2.197034    4.597547
| 14> O     -1.676905   -3.533929    2.578486
| 15> H     -3.975971   -1.314761    1.869759
| 16> H     -2.309815   -0.979447    2.352650
| 17> H     -2.639796   -1.804221    0.822572
| 18> *
| 19>
| 20>                          ****END OF INPUT****
 Total Charge           Charge          ....   -1
 Multiplicity           Mult            ....    1
 Number of Electrons    NEL             ....   42
FINAL SINGLE POINT ENERGY      -232.940935972083
FINAL SINGLE POINT ENERGY      -232.948140672827
FINAL SINGLE POINT ENERGY      -232.948634804976
FINAL SINGLE POINT ENERGY      -232.948696753317
FINAL SINGLE POINT ENERGY      -232.948717666948
FINAL SINGLE POINT ENERGY      -232.948719981037
                    ***********************HURRAY********************

CARTESIAN COORDINATES (ANGSTROEM)
---------------------------------
  C     -3.846648   -4.074910    1.871805
  C     -2.871424   -3.095172    2.590851
  H     -3.514755   -4.221570    0.830678
  H     -3.819002   -5.055329    2.375427
  H     -4.894459   -3.725466    1.855156
  C     -3.390210   -2.904572    4.046708
  H     -4.426767   -2.526663    4.102723
  C     -2.981365   -1.717105    1.872119
  H     -3.345642   -3.868172    4.580361
  H     -2.735376   -2.194050    4.577665
  O     -1.583929   -3.566880    2.575997
  H     -4.004872   -1.301751    1.861586
  H     -2.319539   -0.990693    2.372003
  H     -2.641267   -1.819837    0.828255

 Multiplicity           Mult            ....    1
 Number of Electrons    NEL             ....   42
 Basis Dimension        Dim             ....  209

ORBITAL ENERGIES
----------------

  NO   OCC          E(Eh)            E(eV)
   0   2.0000     -18.608584      -506.3653
   1   2.0000      -9.886496      -269.0252
   2   2.0000      -9.840167      -267.7646
   3   2.0000      -9.840141      -267.7639
   4   2.0000      -9.840080      -267.7622
   5   2.0000      -0.797962       -21.7136
   6   2.0000      -0.647257       -17.6127
   7   2.0000      -0.586522       -15.9601
   8   2.0000      -0.586501       -15.9595
   9   2.0000      -0.433941       -11.8081
  10   2.0000      -0.361963        -9.8495
  11   2.0000      -0.361870        -9.8470
  12   2.0000      -0.356831        -9.7099
  13   2.0000      -0.319174        -8.6852
  14   2.0000      -0.319125        -8.6838
  15   2.0000      -0.293188        -7.9781
  16   2.0000      -0.262204        -7.1349
  17   2.0000      -0.262091        -7.1318
  18   2.0000      -0.255623        -6.9558
  19   2.0000      -0.123550        -3.3620
  20   2.0000      -0.123495        -3.3605
  21   0.0000       0.026222         0.7135
  22   0.0000       0.078312         2.1310
  23   0.0000       0.081883         2.2281
  24   0.0000       0.081942         2.2298
  25   0.0000       0.094718         2.5774

MULLIKEN ATOMIC CHARGES
-----------------------
   0 C :   -0.345013
   1 C :    0.179956
   2 H :    0.076778
   3 H :    0.077112
   4 H :    0.076726
   5 C :   -0.345401
   6 H :    0.076200
   7 C :   -0.348997
   8 H :    0.076717
   9 H :    0.077256
  10 O :   -0.833244
  11 H :    0.076403
  12 H :    0.077882
  13 H :    0.077627
Sum of atomic charges:   -1.0000000

LOEWDIN ATOMIC CHARGES
----------------------
   0 C :   -0.324513
   1 C :   -0.609346
   2 H :    0.107348
   3 H :    0.107354
   4 H :    0.108429
   5 C :   -0.324483
   6 H :    0.108392
   7 C :   -0.324829
   8 H :    0.107290
   9 H :    0.107552
  10 O :   -0.386469
  11 H :    0.108334
  12 H :    0.107556
  13 H :    0.107385

  Mayer bond orders larger than 0.100000
B(  0-C ,  1-C ) :   0.9052 B(  0-C ,  2-H ) :   0.9713 B(  0-C ,  3-H ) :   0.9712
B(  0-C ,  4-H ) :   0.9412 B(  0-C , 10-O ) :  -0.1030 B(  1-C ,  5-C ) :   0.9045
B(  1-C ,  7-C ) :   0.9038 B(  1-C , 10-O ) :   1.5769 B(  5-C ,  6-H ) :   0.9411
B(  5-C ,  8-H ) :   0.9711 B(  5-C ,  9-H ) :   0.9719 B(  5-C , 10-O ) :  -0.1033
B(  7-C , 10-O ) :  -0.1016 B(  7-C , 11-H ) :   0.9409 B(  7-C , 12-H ) :   0.9719
B(  7-C , 13-H ) :   0.9715

FINAL SINGLE POINT ENERGY      -232.948720202498

DIPOLE MOMENT
-------------
                                X             Y             Z
Electronic contribution:      2.78691      -1.02243      -0.02924
Nuclear contribution   :     -4.94867       1.81661       0.05653
                        -----------------------------------------
Total Dipole Moment    :     -2.16176       0.79419       0.02730
                        -----------------------------------------
Magnitude (a.u.)       :      2.30319
Magnitude (Debye)      :      5.85425

Rotational constants in cm-1:     0.159418     0.159387     0.151631
Rotational constants in MHz :  4779.246235  4778.292231  4545.774412

                             ****ORCA TERMINATED NORMALLY****
TOTAL RUN TIME: 0 days 0 hours 3 minutes 18 seconds 140 msec
