   * xtb version 6.7.1 (edcfbbe) compiled by 'albert@albert-system' on 2024-07-22

   ID    Z sym.   atoms
    1    6 C      1, 2, 6
    2    1 H      3-5, 7, 8
    3    8 O      9, 10

          program call               : xtb xyz.xyz --charge -1 --ohess
          :  Hamiltonian                  GFN2-xTB          :
 * total energy  :   -17.3272854 Eh     change       -0.1776357E-13 Eh
 * total energy  :   -17.3294841 Eh     change       -0.2198676E-02 Eh
 * total energy  :   -17.3299260 Eh     change       -0.4419763E-03 Eh
 * total energy  :   -17.3298872 Eh     change        0.3881347E-04 Eh
 * total energy  :   -17.3300087 Eh     change       -0.1214250E-03 Eh
 * total energy  :   -17.3300145 Eh     change       -0.5825070E-05 Eh
 * total energy  :   -17.3300155 Eh     change       -0.9921771E-06 Eh
   *** GEOMETRY OPTIMIZATION CONVERGED AFTER 7 ITERATIONS ***

 final structure:
================
10
 xtb: 6.7.1 (edcfbbe)
C           -5.66234412317392       -3.86827220115558        0.52685901183201
C           -6.95934720785956       -4.27879175002473        1.20258417981318
H           -4.94533416889614       -4.68588459950223        0.57287639826111
H           -5.84641409896995       -3.65212490275309       -0.52381101393879
H           -5.22018848500926       -2.98420133770871        0.99811262449690
C           -7.64657161355368       -5.55097604955651        0.53273187447555
H           -6.78693581111161       -4.51805002471958        2.25648227201626
H           -7.68705447891821       -3.46188685311603        1.16446871148876
O           -7.09514521726764       -6.01654458867369       -0.47210102064208
O           -8.67762179524004       -5.93213269278983        1.10618196219711

          :  Hamiltonian                  GFN2-xTB          :
         :: gradient norm              0.000261154818 Eh/a0 ::
         :: HOMO-LUMO gap              5.320732100597 eV    ::
         :: SCC energy               -17.494380502027 Eh    ::
         :: -> dispersion             -0.005378772978 Eh    ::
         :: repulsion energy           0.164365030365 Eh    ::

    * Orbital Energies and Occupations

         #    Occupation            Energy/Eh            Energy/eV
      -------------------------------------------------------------
         1        2.0000           -0.4622347             -12.5780
       ...           ...                  ...                  ...
         3        2.0000           -0.4461022             -12.1391
         4        2.0000           -0.4068090             -11.0698
         5        2.0000           -0.3549895              -9.6598
         6        2.0000           -0.3431745              -9.3383
         7        2.0000           -0.3334963              -9.0749
         8        2.0000           -0.3075155              -8.3679
         9        2.0000           -0.3018411              -8.2135
        10        2.0000           -0.2919226              -7.9436
        11        2.0000           -0.2708129              -7.3692
        12        2.0000           -0.2676833              -7.2840
        13        2.0000           -0.1873564              -5.0982
        14        2.0000           -0.1726134              -4.6970
        15        2.0000           -0.1556734              -4.2361 (HOMO)
        16                          0.0398599               1.0846 (LUMO)
        17                          0.2600956               7.0776
        18                          0.3071817               8.3588
        19                          0.3179204               8.6511
        20                          0.3190734               8.6824
        21                          0.3465278               9.4295
        22                          0.4054513              11.0329
        23                          0.4370555              11.8929
        24                          0.6310701              17.1723
        25                          0.8817484              23.9936
      -------------------------------------------------------------
                  HL-Gap            0.1955334 Eh            5.3207 eV

     #   Z          covCN         q      C6AA      α(0)
     1   6 C        3.750    -0.074    21.986     6.687
     2   6 C        3.790    -0.089    22.214     6.712
     3   1 H        0.925     0.019     2.751     2.594
     4   1 H        0.925     0.022     2.705     2.572
     5   1 H        0.924    -0.018     3.385     2.877
     6   6 C        2.677     0.365    20.809     7.465
     7   1 H        0.924    -0.009     3.225     2.809
     8   1 H        0.924    -0.010     3.234     2.812
     9   8 O        0.856    -0.597    26.054     6.844
    10   8 O        0.856    -0.608    26.313     6.877

Wiberg/Mayer (AO) data.
largest (>0.10) Wiberg bond orders for each atom

     #   Z sym  total        # sym  WBO       # sym  WBO       # sym  WBO
 ---------------------------------------------------------------------------
     1   6 C    3.997 --     2 C    1.023     3 H    0.989     4 H    0.988
                             5 H    0.987
     2   6 C    3.964 --     1 C    1.023     7 H    0.977     8 H    0.976
                             6 C    0.866
     3   1 H    1.000 --     1 C    0.989
     4   1 H    1.000 --     1 C    0.988
     5   1 H    1.000 --     1 C    0.987
     6   6 C    3.945 --     9 O    1.537    10 O    1.524     2 C    0.866
     7   1 H    1.000 --     2 C    0.977
     8   1 H    1.000 --     2 C    0.976
     9   8 O    1.845 --     6 C    1.537    10 O    0.230
    10   8 O    1.831 --     6 C    1.524     9 O    0.230
 ---------------------------------------------------------------------------

molecular dipole:
                 x           y           z       tot (Debye)
 q only:       14.692      10.968      -0.744
   full:       14.855      11.248      -0.607      47.386

 projected vibrational frequencies (cm⁻¹)
eigval :       -0.00    -0.00    -0.00     0.00     0.00     0.00
eigval :      -41.61   147.70   226.71   482.97   574.68   612.16
eigval :      798.83   818.58  1012.92  1017.37  1103.85  1238.99
eigval :     1276.61  1313.61  1396.59  1485.84  1498.61  1515.15
eigval :     1777.96  2918.47  2927.25  2947.13  3016.81  3027.12

   temp. (K)  partition function   enthalpy   heat capacity  entropy
                                   cal/mol     cal/K/mol   cal/K/mol   J/K/mol
 298.15  VIB   3.95                 1279.730     10.187      7.017
         ROT  0.783E+05              888.752      2.981     25.375
         INT  0.309E+06             2168.482     13.168     32.392
         TR   0.604E+27             1481.254      4.968     38.765
         TOT                        3649.7361    18.1358    71.1575   297.7229

       T/K    H(0)-H(T)+PV         H(T)/Eh          T*S/Eh         G(T)/Eh
   ------------------------------------------------------------------------
    298.15    0.581622E-02    0.813053E-01    0.338092E-01    0.474961E-01
   ------------------------------------------------------------------------

         :::::::::::::::::::::::::::::::::::::::::::::::::::::
         ::                  THERMODYNAMIC                  ::
         :::::::::::::::::::::::::::::::::::::::::::::::::::::
         :: total free energy         -17.282519380156 Eh   ::
         ::.................................................::
         :: total energy              -17.330015471662 Eh   ::
         :: zero point energy           0.075489085270 Eh   ::
         :: G(RRHO) w/o ZPVE           -0.027992993763 Eh   ::
         :: G(RRHO) contrib.            0.047496091507 Eh   ::
         :::::::::::::::::::::::::::::::::::::::::::::::::::::

           -------------------------------------------------
          | TOTAL ENERGY              -17.330015471662 Eh   |
          | TOTAL ENTHALPY            -17.248710161671 Eh   |
          | TOTAL FREE ENERGY         -17.282519380156 Eh   |
          | GRADIENT NORM               0.000261194697 Eh/α |
          | HOMO-LUMO GAP               5.320733727644 eV   |
           -------------------------------------------------

 * finished run on 2025/10/18 at 03:29:52.160
