                         Program Version 5.0.4 -  RELEASE  -
|  1> !SP HF def2-SVP CPCM(water)
|  2>
|  3> *xyz -1 1
|  4> C           -4.07147569622633        0.62500281820578        0.09293813088579
|  5> S           -2.50869855331120        1.61500497499443        0.36258602042416
|  6> H           -4.10514880130866        0.31127557313334       -0.94370128956832
|  7> H           -4.04625726289005       -0.22554343411497        0.76236471114076
|  8> H           -4.90898344270034        1.27437793557862        0.32232901990621
|  9> C           -1.36243784230968        0.40494352046807       -0.08347065643396
| 10> H           -1.19800931582771       -0.37264447746726        0.63923888427485
| 11> O           -2.49836822195630        2.66896245657730       -0.64877884570040
| 12> H           -0.52581886346972        0.71088563262468       -0.68376797492909
| 13> *
| 14>
| 15>                          ****END OF INPUT****

CARTESIAN COORDINATES (ANGSTROEM)
---------------------------------
  C     -4.071476    0.625003    0.092938
  S     -2.508699    1.615005    0.362586
  H     -4.105149    0.311276   -0.943701
  H     -4.046257   -0.225543    0.762365
  H     -4.908983    1.274378    0.322329
  C     -1.362438    0.404944   -0.083471
  H     -1.198009   -0.372644    0.639239
  O     -2.498368    2.668962   -0.648779
  H     -0.525819    0.710886   -0.683768

 Total Charge           Charge          ....   -1
 Multiplicity           Mult            ....    1
 Number of Electrons    NEL             ....   42
 Basis Dimension        Dim             ....   85

ORBITAL ENERGIES
----------------

  NO   OCC          E(Eh)            E(eV)
   0   2.0000     -91.986872     -2503.0900
   1   2.0000     -20.458265      -556.6977
   2   2.0000     -11.215937      -305.2012
   3   2.0000     -11.130058      -302.8643
   4   2.0000      -9.008613      -245.1368
   5   2.0000      -6.697989      -182.2615
   6   2.0000      -6.696165      -182.2119
   7   2.0000      -6.693770      -182.1467
   8   2.0000      -1.311802       -35.6960
   9   2.0000      -0.985197       -26.8086
  10   2.0000      -0.884171       -24.0595
  11   2.0000      -0.731352       -19.9011
  12   2.0000      -0.585311       -15.9271
  13   2.0000      -0.577364       -15.7109
  14   2.0000      -0.566774       -15.4227
  15   2.0000      -0.530535       -14.4366
  16   2.0000      -0.516694       -14.0600
  17   2.0000      -0.481378       -13.0990
  18   2.0000      -0.386215       -10.5094
  19   2.0000      -0.347899        -9.4668
  20   2.0000      -0.220227        -5.9927
  21   0.0000       0.208434         5.6718
  22   0.0000       0.246179         6.6989
  23   0.0000       0.249902         6.8002
  24   0.0000       0.272943         7.4272
  25   0.0000       0.279787         7.6134

MULLIKEN ATOMIC CHARGES
-----------------------
   0 C :   -0.100248
   1 S :    0.549482
   2 H :    0.022361
   3 H :    0.047810
   4 H :    0.037164
   5 C :   -0.700730
   6 H :    0.002463
   7 O :   -0.872241
   8 H :    0.013939
Sum of atomic charges:   -1.0000000

LOEWDIN ATOMIC CHARGES
----------------------
   0 C :   -0.177578
   1 S :    0.810218
   2 H :   -0.000420
   3 H :    0.012949
   4 H :    0.001703
   5 C :   -0.766210
   6 H :   -0.040224
   7 O :   -0.804596
   8 H :   -0.035840

  Mayer bond orders larger than 0.100000
B(  0-C ,  1-S ) :   0.8616 B(  0-C ,  2-H ) :   0.9665 B(  0-C ,  3-H ) :   0.9766
B(  0-C ,  4-H ) :   0.9698 B(  1-S ,  5-C ) :   1.0422 B(  1-S ,  7-O ) :   1.3021
B(  5-C ,  6-H ) :   0.9753 B(  5-C ,  8-H ) :   0.9879

FINAL SINGLE POINT ENERGY      -550.745328656175

DIPOLE MOMENT
-------------
                                X             Y             Z
Electronic contribution:      0.19065       4.68633       1.24621
Nuclear contribution   :     -1.67172      -4.99718      -0.01786
                        -----------------------------------------
Total Dipole Moment    :     -1.48107      -0.31085       1.22834
                        -----------------------------------------
Magnitude (a.u.)       :      1.94911
Magnitude (Debye)      :      4.95424

Rotational constants in cm-1:     0.256249     0.231182     0.142829
Rotational constants in MHz :  7682.144072  6930.666184  4281.896502

                             ****ORCA TERMINATED NORMALLY****
TOTAL RUN TIME: 0 days 0 hours 0 minutes 16 seconds 145 msec
