   * xtb version 6.7.1 (edcfbbe) compiled by 'albert@albert-system' on 2024-07-22

   ID    Z sym.   atoms
    1    6 C      1, 2, 6
    2    1 H      3-5, 7, 8
    3    8 O      9, 10

          program call               : xtb xyz.xyz --alpb water --charge -1 --ohess
      * Solvation model:               ALPB
        Solvent                        water
        Solvent mass                       1.8000E+01 g/mol
          :  Hamiltonian                  GFN2-xTB          :
 * total energy  :   -17.4342768 Eh     change       -0.2076881E-09 Eh
 * total energy  :   -17.4361808 Eh     change       -0.1903975E-02 Eh
 * total energy  :   -17.4364418 Eh     change       -0.2610283E-03 Eh
 * total energy  :   -17.4364128 Eh     change        0.2906415E-04 Eh
 * total energy  :   -17.4364552 Eh     change       -0.4241071E-04 Eh
 * total energy  :   -17.4364559 Eh     change       -0.7282755E-06 Eh
   *** GEOMETRY OPTIMIZATION CONVERGED AFTER 6 ITERATIONS ***

 final structure:
================
10
 xtb: 6.7.1 (edcfbbe)
C           -5.65801068716824       -3.86815744254617        0.52245708250468
C           -6.95520873568140       -4.27959361579700        1.19737842765907
H           -4.94568071372106       -4.68883531429240        0.56425127036844
H           -5.84489349377782       -3.64627481007071       -0.52567923449011
H           -5.23350803459863       -2.99348330939979        1.00951454080654
C           -7.62766911097100       -5.52034762215155        0.54868217544414
H           -6.79401174000288       -4.52715062715406        2.24928167214565
H           -7.69270162829608       -3.47405867524466        1.15759722900171
O           -7.10144253124094       -6.02411015870220       -0.46378866776718
O           -8.67383032454195       -5.92685342464146        1.10469050432706

          :  Hamiltonian                  GFN2-xTB          :
         :: gradient norm              0.000213874885 Eh/a0 ::
         :: HOMO-LUMO gap              5.132448052219 eV    ::
         :: SCC energy               -17.600158537531 Eh    ::
         :: -> dispersion             -0.005222862202 Eh    ::
         :: -> Gsolv                  -0.112835957000 Eh    ::
         :: repulsion energy           0.163702635195 Eh    ::

    * Orbital Energies and Occupations

         #    Occupation            Energy/Eh            Energy/eV
      -------------------------------------------------------------
         1        2.0000           -0.6616696             -18.0049
       ...           ...                  ...                  ...
         3        2.0000           -0.6067433             -16.5103
         4        2.0000           -0.5728157             -15.5871
         5        2.0000           -0.5422765             -14.7561
         6        2.0000           -0.5129189             -13.9572
         7        2.0000           -0.5070377             -13.7972
         8        2.0000           -0.4891908             -13.3116
         9        2.0000           -0.4778034             -13.0017
        10        2.0000           -0.4580153             -12.4632
        11        2.0000           -0.4441031             -12.0847
        12        2.0000           -0.4308409             -11.7238
        13        2.0000           -0.3892585             -10.5923
        14        2.0000           -0.3720637             -10.1244
        15        2.0000           -0.3522564              -9.5854 (HOMO)
        16                         -0.1636425              -4.4529 (LUMO)
        17                          0.1130615               3.0766
        18                          0.1458051               3.9676
        19                          0.1675618               4.5596
        20                          0.1723791               4.6907
        21                          0.1937422               5.2720
        22                          0.2659917               7.2380
        23                          0.2848464               7.7511
        24                          0.4365514              11.8792
        25                          0.6238849              16.9768
      -------------------------------------------------------------
                  HL-Gap            0.1886140 Eh            5.1324 eV

     #   Z          covCN         q      C6AA      α(0)
     1   6 C        3.751    -0.095    22.373     6.745
     2   6 C        3.797    -0.093    22.276     6.720
     3   1 H        0.925     0.032     2.561     2.503
     4   1 H        0.925     0.033     2.544     2.494
     5   1 H        0.925     0.045     2.385     2.415
     6   6 C        2.684     0.361    20.873     7.477
     7   1 H        0.924     0.023     2.685     2.562
     8   1 H        0.924     0.024     2.680     2.560
     9   8 O        0.856    -0.654    27.474     7.027
    10   8 O        0.856    -0.676    28.067     7.103

Wiberg/Mayer (AO) data.
largest (>0.10) Wiberg bond orders for each atom

     #   Z sym  total        # sym  WBO       # sym  WBO       # sym  WBO
 ---------------------------------------------------------------------------
     1   6 C    3.997 --     2 C    1.024     3 H    0.988     4 H    0.988
                             5 H    0.987
     2   6 C    3.994 --     1 C    1.024     7 H    0.971     8 H    0.969
                             6 C    0.925
     3   1 H    0.999 --     1 C    0.988
     4   1 H    0.999 --     1 C    0.988
     5   1 H    0.998 --     1 C    0.987
     6   6 C    3.928 --     9 O    1.502    10 O    1.478     2 C    0.925
     7   1 H    0.999 --     2 C    0.971
     8   1 H    0.999 --     2 C    0.969
     9   8 O    1.787 --     6 C    1.502    10 O    0.211
    10   8 O    1.761 --     6 C    1.478     9 O    0.211
 ---------------------------------------------------------------------------

molecular dipole:
                 x           y           z       tot (Debye)
 q only:       15.139      11.575      -0.531
   full:       15.168      11.695      -0.441      48.695

 projected vibrational frequencies (cm⁻¹)
eigval :       -0.00    -0.00     0.00     0.00     0.00     0.00
eigval :      -21.23   160.96   237.88   492.62   566.26   619.74
eigval :      818.39   843.95  1029.75  1046.46  1112.09  1230.20
eigval :     1289.56  1335.62  1394.22  1466.84  1479.99  1506.24
eigval :     1651.87  2946.70  2965.22  3015.34  3026.77  3038.94

   temp. (K)  partition function   enthalpy   heat capacity  entropy
                                   cal/mol     cal/K/mol   cal/K/mol   J/K/mol
 298.15  VIB   3.59                 1240.148     10.032      6.700
         ROT  0.776E+05              888.752      2.981     25.356
         INT  0.279E+06             2128.900     13.013     32.056
         TR   0.604E+27             1481.254      4.968     38.765
         TOT                        3610.1540    17.9808    70.8213   296.3165

       T/K    H(0)-H(T)+PV         H(T)/Eh          T*S/Eh         G(T)/Eh
   ------------------------------------------------------------------------
    298.15    0.575315E-02    0.815605E-01    0.336495E-01    0.479110E-01
   ------------------------------------------------------------------------

         :::::::::::::::::::::::::::::::::::::::::::::::::::::
         ::                  THERMODYNAMIC                  ::
         :::::::::::::::::::::::::::::::::::::::::::::::::::::
         :: total free energy         -17.388544865147 Eh   ::
         ::.................................................::
         :: total energy              -17.436455902253 Eh   ::
         :: zero point energy           0.075807392253 Eh   ::
         :: G(RRHO) w/o ZPVE           -0.027896355147 Eh   ::
         :: G(RRHO) contrib.            0.047911037106 Eh   ::
         :::::::::::::::::::::::::::::::::::::::::::::::::::::

           -------------------------------------------------
          | TOTAL ENERGY              -17.436455902253 Eh   |
          | TOTAL ENTHALPY            -17.354895363386 Eh   |
          | TOTAL FREE ENERGY         -17.388544865147 Eh   |
          | GRADIENT NORM               0.000213854107 Eh/α |
          | HOMO-LUMO GAP               5.132447333810 eV   |
           -------------------------------------------------

 * finished run on 2025/10/18 at 03:30:03.983
