   * xtb version 6.7.1 (edcfbbe) compiled by 'albert@albert-system' on 2024-07-22

   ID    Z sym.   atoms
    1    6 C      1, 2, 4, 6, 8, 10, 12
    2    1 H      3, 5, 7, 9, 11, 13, 14
    3    8 O      15

          program call               : xtb tb_lite_results_shiftn0p2_gp841_b0_rot270_solute.xyz --ohess --chrg -1
          :  Hamiltonian                  GFN2-xTB          :
 * total energy  :   -22.7592891 Eh     change       -0.1138574E-09 Eh
 * total energy  :   -22.7627960 Eh     change       -0.3506890E-02 Eh
 * total energy  :   -22.7634204 Eh     change       -0.6244247E-03 Eh
 * total energy  :   -22.7635781 Eh     change       -0.1577182E-03 Eh
 * total energy  :   -22.7636157 Eh     change       -0.3759873E-04 Eh
 * total energy  :   -22.7636280 Eh     change       -0.1229328E-04 Eh
 * total energy  :   -22.7636317 Eh     change       -0.3680622E-05 Eh
   *** GEOMETRY OPTIMIZATION CONVERGED AFTER 7 ITERATIONS ***

 final structure:
================
15
 xtb: 6.7.1 (edcfbbe)
C           -4.20694010428665       -4.16629660520494       -3.21973105290672
C           -2.90136256519614       -4.61430599507165       -3.24096580315777
H           -3.80099931052773       -1.38820486924165       -1.35850680755236
C           -4.56551034224781       -2.99980458124330       -2.53987048441244
H           -4.97626824242555       -4.72254949116869       -3.74056316258702
C           -1.90694235198547       -3.91026697949129       -2.57747431143833
H           -2.64980959484605       -5.53017227487046       -3.76675417600494
C           -2.24214359813293       -2.74415366723786       -1.90442184520229
H           -0.88304811441602       -4.26705707227443       -2.58326189545975
C           -3.54885183472110       -2.29971884633860       -1.88577798889997
H           -1.47174537891110       -2.18847789081082       -1.37885235502153
C           -5.93832689282985       -2.38077481148163       -2.72747143993527
H           -6.70671374791389       -3.22208420546439       -2.78984708986590
H           -6.21302254406686       -1.81804981310709       -1.77314887351091
O           -5.85859866373886       -1.62635413422023       -3.80852690765497

          :  Hamiltonian                  GFN2-xTB          :
         :: gradient norm              0.000477814313 Eh/a0 ::
         :: HOMO-LUMO gap              1.537699251396 eV    ::
         :: SCC energy               -23.107581630637 Eh    ::
         :: -> dispersion             -0.012884895106 Eh    ::
         :: repulsion energy           0.343949909398 Eh    ::

    * Orbital Energies and Occupations

         #    Occupation            Energy/Eh            Energy/eV
      -------------------------------------------------------------
         1        2.0000           -0.4874864             -13.2652
       ...           ...                  ...                  ...
         9        2.0000           -0.3452534              -9.3948
        10        2.0000           -0.3381107              -9.2005
        11        2.0000           -0.3287187              -8.9449
        12        2.0000           -0.3210303              -8.7357
        13        2.0000           -0.3105278              -8.4499
        14        2.0000           -0.2876753              -7.8280
        15        2.0000           -0.2775362              -7.5521
        16        2.0000           -0.2644374              -7.1957
        17        2.0000           -0.2533788              -6.8948
        18        2.0000           -0.2493946              -6.7864
        19        2.0000           -0.2275234              -6.1912
        20        2.0000           -0.1239360              -3.3725
        21        2.0000           -0.1231233              -3.3504 (HOMO)
        22                         -0.0666139              -1.8127 (LUMO)
        23                         -0.0608424              -1.6556
        24                          0.0638313               1.7369
        25                          0.2541036               6.9145
        26                          0.2638511               7.1798
        27                          0.2888655               7.8604
        28                          0.3127417               8.5101
        29                          0.3196779               8.6989
        30                          0.3385845               9.2134
        31                          0.3514488               9.5634
        32                          0.3587071               9.7609
       ...                                ...                  ...
        39                          0.8067737              21.9534
      -------------------------------------------------------------
                  HL-Gap            0.0565094 Eh            1.5377 eV

     #   Z          covCN         q      C6AA      α(0)
     1   6 C        2.924    -0.036    28.900     8.816
     2   6 C        2.917    -0.043    29.068     8.841
     3   1 H        0.925     0.006     2.961     2.691
     4   6 C        2.966     0.001    27.999     8.679
     5   1 H        0.925     0.005     2.966     2.693
     6   6 C        2.918    -0.057    29.422     8.895
     7   1 H        0.925    -0.015     3.335     2.856
     8   6 C        2.917    -0.043    29.069     8.841
     9   1 H        0.925    -0.020     3.421     2.892
    10   6 C        2.924    -0.036    28.893     8.815
    11   1 H        0.925    -0.015     3.334     2.856
    12   6 C        3.664     0.182    17.937     6.075
    13   1 H        0.915    -0.105     5.752     3.751
    14   1 H        0.914    -0.105     5.759     3.754
    15   8 O        0.860    -0.718    29.213     7.247

Wiberg/Mayer (AO) data.
largest (>0.10) Wiberg bond orders for each atom

     #   Z sym  total        # sym  WBO       # sym  WBO       # sym  WBO
 ---------------------------------------------------------------------------
     1   6 C    3.991 --     2 C    1.467     4 C    1.367     5 H    0.970
     2   6 C    3.990 --     1 C    1.467     6 C    1.415     7 H    0.971
     3   1 H    1.000 --    10 C    0.970
     4   6 C    3.944 --     1 C    1.367    10 C    1.367    12 C    0.950
                            15 O    0.131
     5   1 H    1.000 --     1 C    0.970
     6   6 C    3.985 --     2 C    1.415     8 C    1.415     9 H    0.972
     7   1 H    0.999 --     2 C    0.971
     8   6 C    3.990 --    10 C    1.467     6 C    1.415    11 H    0.971
     9   1 H    0.999 --     6 C    0.972
    10   6 C    3.991 --     8 C    1.467     4 C    1.367     3 H    0.970
    11   1 H    0.999 --     8 C    0.971
    12   6 C    3.982 --    15 O    1.148     4 C    0.950    13 H    0.924
                            14 H    0.924
    13   1 H    0.989 --    12 C    0.924
    14   1 H    0.989 --    12 C    0.924
    15   8 O    1.519 --    12 C    1.148     4 C    0.131
 ---------------------------------------------------------------------------

molecular dipole:
                 x           y           z       tot (Debye)
 q only:        9.684       4.163       6.370
   full:        9.761       3.980       6.585      31.590

 projected vibrational frequencies (cm⁻¹)
eigval :       -0.00    -0.00    -0.00     0.00     0.00     0.00
eigval :       87.09   118.91   272.51   313.04   355.59   462.64
eigval :      533.14   589.48   654.28   739.00   794.43   858.90
eigval :      862.58   911.86   912.35   976.35   994.98  1078.98
eigval :     1120.95  1129.68  1182.68  1197.45  1212.56  1223.09
eigval :     1293.70  1337.25  1343.60  1439.81  1466.63  1508.36
eigval :     1558.48  1589.88  2246.14  2409.68  2996.70  2999.91
eigval :     3023.26  3044.70  3049.06

   temp. (K)  partition function   enthalpy   heat capacity  entropy
                                   cal/mol     cal/K/mol   cal/K/mol   J/K/mol
 298.15  VIB   22.5                 2574.800     19.879     14.740
         ROT  0.278E+06              888.752      2.981     27.890
         INT  0.625E+07             3463.552     22.860     42.629
         TR   0.107E+28             1481.254      4.968     39.905
         TOT                        4944.8062    27.8279    82.5346   345.3249

       T/K    H(0)-H(T)+PV         H(T)/Eh          T*S/Eh         G(T)/Eh
   ------------------------------------------------------------------------
    298.15    0.788005E-02    0.121537E+00    0.392149E-01    0.823222E-01
   ------------------------------------------------------------------------

         :::::::::::::::::::::::::::::::::::::::::::::::::::::
         ::                  THERMODYNAMIC                  ::
         :::::::::::::::::::::::::::::::::::::::::::::::::::::
         :: total free energy         -22.681309515929 Eh   ::
         ::.................................................::
         :: total energy              -22.763631721244 Eh   ::
         :: zero point energy           0.113657022902 Eh   ::
         :: G(RRHO) w/o ZPVE           -0.031334817587 Eh   ::
         :: G(RRHO) contrib.            0.082322205315 Eh   ::
         :::::::::::::::::::::::::::::::::::::::::::::::::::::

           -------------------------------------------------
          | TOTAL ENERGY              -22.763631721244 Eh   |
          | TOTAL ENTHALPY            -22.642094647997 Eh   |
          | TOTAL FREE ENERGY         -22.681309515929 Eh   |
          | GRADIENT NORM               0.000477917014 Eh/α |
          | HOMO-LUMO GAP               1.537700393872 eV   |
           -------------------------------------------------

 * finished run on 2025/10/18 at 01:14:00.068
normal termination of xtb
