   * xtb version 6.7.1 (edcfbbe) compiled by 'albert@albert-system' on 2024-07-22

   ID    Z sym.   atoms
    1    6 C      1, 2, 4, 6, 8, 10, 12
    2    1 H      3, 5, 7, 9, 11, 13, 14, 17, 18
    3    8 O      15, 16

          program call               : xtb tb_lite_results_shiftn0p2_gp868_b0_rot270_complex.xyz --ohess --chrg -1 --alpb water
      * Solvation model:               ALPB
        Solvent                        water
        Solvent mass                       1.8000E+01 g/mol
          :  Hamiltonian                  GFN2-xTB          :
 * total energy  :   -27.9653197 Eh     change       -0.2847997E-09 Eh
 * total energy  :   -27.9697316 Eh     change       -0.4411914E-02 Eh
 * total energy  :   -27.9702897 Eh     change       -0.5581185E-03 Eh
 * total energy  :   -27.9706245 Eh     change       -0.3347795E-03 Eh
 * total energy  :   -27.9708326 Eh     change       -0.2081056E-03 Eh
 * total energy  :   -27.9709360 Eh     change       -0.1034541E-03 Eh
 * total energy  :   -27.9709797 Eh     change       -0.4363167E-04 Eh
 * total energy  :   -27.9710060 Eh     change       -0.2630523E-04 Eh
 * total energy  :   -27.9710202 Eh     change       -0.1419609E-04 Eh
 * total energy  :   -27.9710436 Eh     change       -0.2345790E-04 Eh
 * total energy  :   -27.9713366 Eh     change       -0.6529665E-05 Eh
 * total energy  :   -27.9713457 Eh     change       -0.9154646E-05 Eh
 * total energy  :   -27.9713581 Eh     change       -0.1239927E-04 Eh
 * total energy  :   -27.9713674 Eh     change       -0.9308933E-05 Eh
 * total energy  :   -27.9713745 Eh     change       -0.7093395E-05 Eh
 * total energy  :   -27.9713912 Eh     change       -0.1665770E-04 Eh
 * total energy  :   -27.9713913 Eh     change       -0.1745004E-06 Eh
 * total energy  :   -27.9714040 Eh     change       -0.1268984E-04 Eh
 * total energy  :   -27.9714055 Eh     change       -0.1437898E-05 Eh
   *** GEOMETRY OPTIMIZATION CONVERGED AFTER 40 ITERATIONS ***

 final structure:
================
18
 xtb: 6.7.1 (edcfbbe)
C           -4.03250462321781       -3.96360702569541       -3.46276188158900
C           -2.75658837215623       -4.47820107086389       -3.31932230486604
H           -3.94086904574086       -1.59458134353798       -1.06960830119381
C           -4.47296406268763       -2.92536459312014       -2.64987849306377
H           -4.70272827157765       -4.34651101628954       -4.21985721802693
C           -1.90155737895915       -3.96334253654609       -2.35841890306710
H           -2.43234045615209       -5.28445883971849       -3.96056859603662
C           -2.32863775665669       -2.92579734408284       -1.54852803364820
H           -0.90638291673804       -4.36627256922551       -2.24581595414526
C           -3.60517403014547       -2.41006972803023       -1.69643660162848
H           -1.66835939080799       -2.51212881883442       -0.80092589775908
C           -5.85305262968455       -2.32997271254780       -2.86458200249410
H           -6.59626082911115       -3.17367476041014       -2.87877292900302
H           -6.11654410347135       -1.71292188183038       -1.96573880319956
O           -5.94858488665607       -1.57347608557772       -3.99169573702392
O           -6.06472442459771       -3.03565637742407       -6.07627791629348
H           -6.02554259996891       -2.45332064603199       -5.22529909191856
H           -5.85070548448358       -2.42034412063656       -6.78444250029295

          :  Hamiltonian                  GFN2-xTB          :
         :: gradient norm              0.000841062430 Eh/a0 ::
         :: HOMO-LUMO gap              3.052142964819 eV    ::
         :: SCC energy               -28.345412398682 Eh    ::
         :: -> dispersion             -0.014525904621 Eh    ::
         :: -> Gsolv                  -0.118646472713 Eh    ::
         :: repulsion energy           0.374006923968 Eh    ::

    * Orbital Energies and Occupations

         #    Occupation            Energy/Eh            Energy/eV
      -------------------------------------------------------------
         1        2.0000           -0.6382278             -17.3671
       ...           ...                  ...                  ...
        13        2.0000           -0.4794441             -13.0463
        14        2.0000           -0.4717357             -12.8366
        15        2.0000           -0.4680923             -12.7374
        16        2.0000           -0.4622321             -12.5780
        17        2.0000           -0.4554761             -12.3941
        18        2.0000           -0.4451316             -12.1126
        19        2.0000           -0.4175759             -11.3628
        20        2.0000           -0.4116558             -11.2017
        21        2.0000           -0.4016623             -10.9298
        22        2.0000           -0.3940602             -10.7229
        23        2.0000           -0.3859542             -10.5023
        24        2.0000           -0.3263401              -8.8802
        25        2.0000           -0.3247724              -8.8375 (HOMO)
        26                         -0.2126082              -5.7854 (LUMO)
        27                         -0.2110041              -5.7417
        28                         -0.0830701              -2.2605
        29                          0.1111585               3.0248
        30                          0.1155375               3.1439
        31                          0.1269673               3.4550
        32                          0.1545536               4.2056
        33                          0.1677744               4.5654
        34                          0.1728722               4.7041
        35                          0.1949737               5.3055
        36                          0.2097579               5.7078
       ...                                ...                  ...
        45                          0.6732420              18.3198
      -------------------------------------------------------------
                  HL-Gap            0.1121641 Eh            3.0521 eV

     #   Z          covCN         q      C6AA      α(0)
     1   6 C        2.924    -0.031    28.772     8.796
     2   6 C        2.919    -0.039    28.961     8.825
     3   1 H        0.925     0.013     2.842     2.636
     4   6 C        2.966    -0.014    28.366     8.736
     5   1 H        0.926     0.021     2.712     2.575
     6   6 C        2.920    -0.043    29.074     8.842
     7   1 H        0.926     0.038     2.476     2.460
     8   6 C        2.919    -0.040    28.993     8.830
     9   1 H        0.926     0.047     2.363     2.404
    10   6 C        2.924    -0.039    28.961     8.825
    11   1 H        0.926     0.042     2.424     2.435
    12   6 C        3.672     0.164    18.177     6.110
    13   1 H        0.919    -0.087     5.142     3.546
    14   1 H        0.919    -0.086     5.091     3.529
    15   8 O        0.868    -0.826    32.390     7.631
    16   8 O        1.595    -0.734    28.647     7.223
    17   1 H        0.804     0.291     0.748     1.359
    18   1 H        0.805     0.323     0.654     1.271

Wiberg/Mayer (AO) data.
largest (>0.10) Wiberg bond orders for each atom

     #   Z sym  total        # sym  WBO       # sym  WBO       # sym  WBO
 ---------------------------------------------------------------------------
     1   6 C    3.991 --     2 C    1.450     4 C    1.410     5 H    0.968
                             8 C    0.111
     2   6 C    3.991 --     1 C    1.450     6 C    1.433     7 H    0.970
                            10 C    0.109
     3   1 H    1.000 --    10 C    0.969
     4   6 C    3.982 --    10 C    1.418     1 C    1.410    12 C    0.973
                             6 C    0.111
     5   1 H    1.000 --     1 C    0.968
     6   6 C    3.990 --     8 C    1.440     2 C    1.433     9 H    0.970
                             4 C    0.111
     7   1 H    0.998 --     2 C    0.970
     8   6 C    3.991 --    10 C    1.441     6 C    1.440    11 H    0.970
                             1 C    0.111
     9   1 H    0.997 --     6 C    0.970
    10   6 C    3.991 --     8 C    1.441     4 C    1.418     3 H    0.969
                             2 C    0.109
    11   1 H    0.998 --     8 C    0.970
    12   6 C    3.981 --    15 O    1.082     4 C    0.973    14 H    0.948
                            13 H    0.940
    13   1 H    0.992 --    12 C    0.940
    14   1 H    0.992 --    12 C    0.948
    15   8 O    1.441 --    12 C    1.082    17 H    0.153
    16   8 O    1.728 --    18 H    0.894    17 H    0.758
    17   1 H    0.915 --    16 O    0.758    15 O    0.153
    18   1 H    0.895 --    16 O    0.894
 ---------------------------------------------------------------------------

molecular dipole:
                 x           y           z       tot (Debye)
 q only:       11.559       4.100       7.756
   full:       11.385       4.241       7.917      36.858

 projected vibrational frequencies (cm⁻¹)
eigval :       -0.00    -0.00    -0.00     0.00     0.00     0.00
eigval :       25.62    53.90   105.32   133.32   145.53   286.63
eigval :      335.17   353.95   366.90   468.93   569.78   590.64
eigval :      642.75   673.18   751.71   810.09   874.21   895.63
eigval :      917.80   928.69   981.92   985.75   994.20  1056.13
eigval :     1083.41  1121.12  1175.69  1194.37  1210.51  1247.48
eigval :     1290.71  1326.15  1351.61  1437.75  1471.65  1497.83
eigval :     1570.86  1591.51  1600.20  2174.87  2466.92  2598.97
eigval :     3047.66  3066.06  3071.36  3076.37  3089.36  3619.74

   temp. (K)  partition function   enthalpy   heat capacity  entropy
                                   cal/mol     cal/K/mol   cal/K/mol   J/K/mol
 298.15  VIB  0.156E+04             4286.731     27.056     26.636
         ROT  0.579E+06              888.752      2.981     29.351
         INT  0.905E+09             5175.484     30.037     55.987
         TR   0.135E+28             1481.254      4.968     40.368
         TOT                        6656.7375    35.0047    96.3548   403.1486

       T/K    H(0)-H(T)+PV         H(T)/Eh          T*S/Eh         G(T)/Eh
   ------------------------------------------------------------------------
    298.15    0.106082E-01    0.148050E+00    0.457813E-01    0.102268E+00
   ------------------------------------------------------------------------

         :::::::::::::::::::::::::::::::::::::::::::::::::::::
         ::                  THERMODYNAMIC                  ::
         :::::::::::::::::::::::::::::::::::::::::::::::::::::
         :: total free energy         -27.869136999802 Eh   ::
         ::.................................................::
         :: total energy              -27.971405474109 Eh   ::
         :: zero point energy           0.137441580200 Eh   ::
         :: G(RRHO) w/o ZPVE           -0.035173105893 Eh   ::
         :: G(RRHO) contrib.            0.102268474307 Eh   ::
         :::::::::::::::::::::::::::::::::::::::::::::::::::::

           -------------------------------------------------
          | TOTAL ENERGY              -27.971405474109 Eh   |
          | TOTAL ENTHALPY            -27.823355707506 Eh   |
          | TOTAL FREE ENERGY         -27.869136999802 Eh   |
          | GRADIENT NORM               0.000841282562 Eh/α |
          | HOMO-LUMO GAP               3.052141721950 eV   |
           -------------------------------------------------

 * finished run on 2025/10/18 at 01:13:53.635
normal termination of xtb
