   * xtb version 6.7.1 (edcfbbe) compiled by 'albert@albert-system' on 2024-07-22

   ID    Z sym.   atoms
    1    6 C      1, 2, 4, 6, 8, 10, 12
    2    1 H      3, 5, 7, 9, 11, 13, 14, 17, 18
    3    8 O      15, 16

          program call               : xtb tb_lite_results_shiftn0p2_gp856_b0_rot0_complex.xyz --ohess --chrg -1 --alpb water
      * Solvation model:               ALPB
        Solvent                        water
        Solvent mass                       1.8000E+01 g/mol
          :  Hamiltonian                  GFN2-xTB          :
 * total energy  :   -27.9637947 Eh     change       -0.2503775E-09 Eh
 * total energy  :   -27.9680339 Eh     change       -0.4239137E-02 Eh
 * total energy  :   -27.9687772 Eh     change       -0.7433624E-03 Eh
 * total energy  :   -27.9691602 Eh     change       -0.3829287E-03 Eh
 * total energy  :   -27.9694969 Eh     change       -0.3367803E-03 Eh
 * total energy  :   -27.9694717 Eh     change        0.2526794E-04 Eh
 * total energy  :   -27.9698445 Eh     change       -0.3728777E-03 Eh
 * total energy  :   -27.9699071 Eh     change       -0.6257359E-04 Eh
 * total energy  :   -27.9699653 Eh     change       -0.5813967E-04 Eh
 * total energy  :   -27.9700027 Eh     change       -0.3741611E-04 Eh
 * total energy  :   -27.9712805 Eh     change       -0.1470308E-04 Eh
 * total energy  :   -27.9712880 Eh     change       -0.7510807E-05 Eh
 * total energy  :   -27.9712955 Eh     change       -0.7457730E-05 Eh
 * total energy  :   -27.9713023 Eh     change       -0.6801523E-05 Eh
 * total energy  :   -27.9713104 Eh     change       -0.8103276E-05 Eh
 * total energy  :   -27.9713168 Eh     change       -0.6396388E-05 Eh
 * total energy  :   -27.9713054 Eh     change        0.1143882E-04 Eh
 * total energy  :   -27.9713185 Eh     change       -0.1313736E-04 Eh
 * total energy  :   -27.9713212 Eh     change       -0.2664128E-05 Eh
   *** GEOMETRY OPTIMIZATION CONVERGED AFTER 47 ITERATIONS ***

 final structure:
================
18
 xtb: 6.7.1 (edcfbbe)
C           -4.20582986431408       -4.21573281112080       -3.19153372027793
C           -2.93221417143889       -4.74933776088676       -3.09357348858668
H           -3.69734291497222       -1.26885652807436       -1.64750232338269
C           -4.49489886405097       -2.96602469546205       -2.65966408501564
H           -4.99356768765629       -4.76652607218986       -3.68841609474471
C           -1.92764073208142       -4.03567231570001       -2.46357532990651
H           -2.72720668716942       -5.72383375506507       -3.51192428069146
C           -2.20316100938928       -2.78390936962855       -1.93879769721046
H           -0.93381661951831       -4.44989438644023       -2.38557169808698
C           -3.47720004794378       -2.25364104786729       -2.03642216986572
H           -1.42541345052619       -2.21489099627644       -1.45097782846933
C           -5.86818824646986       -2.34262903056170       -2.82808037168557
H           -6.61783838382884       -3.16500365739838       -2.96885003686745
H           -6.14758983488890       -1.84099719922075       -1.86205360737425
O           -5.93500663386634       -1.47018300006645       -3.87106667868586
O           -4.64386084140797        0.66779988285314       -3.35694976117885
H           -5.17137092229218       -0.19826978809372       -3.54712986169024
H           -4.43949515168444        1.00843458374847       -4.23318998988271

          :  Hamiltonian                  GFN2-xTB          :
         :: gradient norm              0.000434552877 Eh/a0 ::
         :: HOMO-LUMO gap              3.061356762917 eV    ::
         :: SCC energy               -28.345478547071 Eh    ::
         :: -> dispersion             -0.014578448861 Eh    ::
         :: -> Gsolv                  -0.118624444878 Eh    ::
         :: repulsion energy           0.374157382701 Eh    ::

    * Orbital Energies and Occupations

         #    Occupation            Energy/Eh            Energy/eV
      -------------------------------------------------------------
         1        2.0000           -0.6378670             -17.3572
       ...           ...                  ...                  ...
        13        2.0000           -0.4784101             -13.0182
        14        2.0000           -0.4722261             -12.8499
        15        2.0000           -0.4683853             -12.7454
        16        2.0000           -0.4620762             -12.5737
        17        2.0000           -0.4557100             -12.4005
        18        2.0000           -0.4455075             -12.1229
        19        2.0000           -0.4175692             -11.3626
        20        2.0000           -0.4116869             -11.2026
        21        2.0000           -0.4016006             -10.9281
        22        2.0000           -0.3939921             -10.7211
        23        2.0000           -0.3859066             -10.5011
        24        2.0000           -0.3265966              -8.8871
        25        2.0000           -0.3250859              -8.8460 (HOMO)
        26                         -0.2125830              -5.7847 (LUMO)
        27                         -0.2109759              -5.7409
        28                         -0.0830450              -2.2598
        29                          0.1112199               3.0264
        30                          0.1179402               3.2093
        31                          0.1278241               3.4783
        32                          0.1533665               4.1733
        33                          0.1685653               4.5869
        34                          0.1717677               4.6740
        35                          0.1934907               5.2652
        36                          0.2105705               5.7299
       ...                                ...                  ...
        45                          0.6731245              18.3167
      -------------------------------------------------------------
                  HL-Gap            0.1125029 Eh            3.0614 eV

     #   Z          covCN         q      C6AA      α(0)
     1   6 C        2.924    -0.037    28.925     8.820
     2   6 C        2.919    -0.040    28.992     8.830
     3   1 H        0.925     0.019     2.746     2.591
     4   6 C        2.966    -0.014    28.354     8.734
     5   1 H        0.925     0.013     2.841     2.636
     6   6 C        2.920    -0.043    29.071     8.842
     7   1 H        0.926     0.042     2.428     2.437
     8   6 C        2.919    -0.038    28.956     8.824
     9   1 H        0.926     0.047     2.362     2.403
    10   6 C        2.924    -0.031    28.771     8.796
    11   1 H        0.926     0.038     2.471     2.458
    12   6 C        3.672     0.164    18.176     6.110
    13   1 H        0.919    -0.086     5.084     3.526
    14   1 H        0.919    -0.088     5.159     3.552
    15   8 O        0.868    -0.826    32.372     7.629
    16   8 O        1.595    -0.734    28.633     7.221
    17   1 H        0.804     0.291     0.750     1.361
    18   1 H        0.805     0.323     0.655     1.272

Wiberg/Mayer (AO) data.
largest (>0.10) Wiberg bond orders for each atom

     #   Z sym  total        # sym  WBO       # sym  WBO       # sym  WBO
 ---------------------------------------------------------------------------
     1   6 C    3.991 --     2 C    1.443     4 C    1.416     5 H    0.969
                             8 C    0.109
     2   6 C    3.991 --     1 C    1.443     6 C    1.439     7 H    0.970
                            10 C    0.111
     3   1 H    1.000 --    10 C    0.969
     4   6 C    3.982 --     1 C    1.416    10 C    1.411    12 C    0.973
                             6 C    0.111
     5   1 H    1.000 --     1 C    0.969
     6   6 C    3.991 --     2 C    1.439     8 C    1.434     9 H    0.970
                             4 C    0.111
     7   1 H    0.998 --     2 C    0.970
     8   6 C    3.991 --    10 C    1.449     6 C    1.434    11 H    0.970
                             1 C    0.109
     9   1 H    0.997 --     6 C    0.970
    10   6 C    3.991 --     8 C    1.449     4 C    1.411     3 H    0.969
                             2 C    0.111
    11   1 H    0.998 --     8 C    0.970
    12   6 C    3.981 --    15 O    1.081     4 C    0.973    13 H    0.948
                            14 H    0.942
    13   1 H    0.992 --    12 C    0.948
    14   1 H    0.992 --    12 C    0.942
    15   8 O    1.442 --    12 C    1.081    17 H    0.153
    16   8 O    1.728 --    18 H    0.895    17 H    0.759
    17   1 H    0.916 --    16 O    0.759    15 O    0.153
    18   1 H    0.896 --    16 O    0.895
 ---------------------------------------------------------------------------

molecular dipole:
                 x           y           z       tot (Debye)
 q only:       10.922       2.196       6.322
   full:       10.667       2.092       6.310      31.946

 projected vibrational frequencies (cm⁻¹)
eigval :       -0.00    -0.00     0.00     0.00     0.00     0.00
eigval :        9.36    52.08   100.97   124.65   129.76   295.46
eigval :      328.90   352.78   365.33   470.96   568.96   590.70
eigval :      634.27   672.91   754.12   811.33   874.48   894.47
eigval :      918.92   925.66   982.17   985.11   997.51  1054.96
eigval :     1083.27  1120.75  1175.94  1194.40  1211.64  1245.26
eigval :     1290.84  1327.89  1349.03  1437.99  1472.40  1498.78
eigval :     1567.71  1592.10  1600.67  2181.16  2472.09  2601.29
eigval :     3047.28  3063.01  3069.24  3073.25  3088.39  3620.72

   temp. (K)  partition function   enthalpy   heat capacity  entropy
                                   cal/mol     cal/K/mol   cal/K/mol   J/K/mol
 298.15  VIB  0.497E+04             4345.116     26.979     27.938
         ROT  0.574E+06              888.752      2.981     29.332
         INT  0.285E+10             5233.869     29.960     57.270
         TR   0.135E+28             1481.254      4.968     40.368
         TOT                        6715.1228    34.9285    97.6381   408.5179

       T/K    H(0)-H(T)+PV         H(T)/Eh          T*S/Eh         G(T)/Eh
   ------------------------------------------------------------------------
    298.15    0.107012E-01    0.148031E+00    0.463910E-01    0.101640E+00
   ------------------------------------------------------------------------

         :::::::::::::::::::::::::::::::::::::::::::::::::::::
         ::                  THERMODYNAMIC                  ::
         :::::::::::::::::::::::::::::::::::::::::::::::::::::
         :: total free energy         -27.869680994975 Eh   ::
         ::.................................................::
         :: total energy              -27.971321165244 Eh   ::
         :: zero point energy           0.137329963792 Eh   ::
         :: G(RRHO) w/o ZPVE           -0.035689793524 Eh   ::
         :: G(RRHO) contrib.            0.101640170268 Eh   ::
         :::::::::::::::::::::::::::::::::::::::::::::::::::::

           -------------------------------------------------
          | TOTAL ENERGY              -27.971321165244 Eh   |
          | TOTAL ENTHALPY            -27.823289972159 Eh   |
          | TOTAL FREE ENERGY         -27.869680994975 Eh   |
          | GRADIENT NORM               0.000433985381 Eh/α |
          | HOMO-LUMO GAP               3.061358600276 eV   |
           -------------------------------------------------

 * finished run on 2025/10/18 at 01:14:02.011
normal termination of xtb
