   * xtb version 6.7.1 (edcfbbe) compiled by 'albert@albert-system' on 2024-07-22

   ID    Z sym.   atoms
    1    6 C      1, 2, 4, 6, 8, 10, 12
    2    1 H      3, 5, 7, 9, 11, 13, 14, 17, 18
    3    8 O      15, 16

          program call               : xtb tb_lite_results_shiftn0p25_gp841_b0_rot270_complex.xyz --ohess --chrg -1 --alpb water
      * Solvation model:               ALPB
        Solvent                        water
        Solvent mass                       1.8000E+01 g/mol
          :  Hamiltonian                  GFN2-xTB          :
 * total energy  :   -27.9644012 Eh     change       -0.1484395E-09 Eh
 * total energy  :   -27.9696013 Eh     change       -0.5200102E-02 Eh
 * total energy  :   -27.9700499 Eh     change       -0.4485986E-03 Eh
 * total energy  :   -27.9702294 Eh     change       -0.1794861E-03 Eh
 * total energy  :   -27.9704704 Eh     change       -0.2410062E-03 Eh
 * total energy  :   -27.9704599 Eh     change        0.1042256E-04 Eh
 * total energy  :   -27.9706140 Eh     change       -0.1540517E-03 Eh
 * total energy  :   -27.9706563 Eh     change       -0.4231697E-04 Eh
 * total energy  :   -27.9707525 Eh     change       -0.9619219E-04 Eh
 * total energy  :   -27.9708229 Eh     change       -0.7038719E-04 Eh
 * total energy  :   -27.9710463 Eh     change       -0.1331665E-04 Eh
 * total energy  :   -27.9710641 Eh     change       -0.1780802E-04 Eh
 * total energy  :   -27.9710861 Eh     change       -0.2202347E-04 Eh
 * total energy  :   -27.9711122 Eh     change       -0.2614081E-04 Eh
 * total energy  :   -27.9710975 Eh     change        0.1472577E-04 Eh
 * total energy  :   -27.9711476 Eh     change       -0.5005631E-04 Eh
 * total energy  :   -27.9711571 Eh     change       -0.9558469E-05 Eh
 * total energy  :   -27.9711661 Eh     change       -0.8966079E-05 Eh
 * total energy  :   -27.9711704 Eh     change       -0.4337489E-05 Eh
   *** GEOMETRY OPTIMIZATION CONVERGED AFTER 26 ITERATIONS ***

 final structure:
================
18
 xtb: 6.7.1 (edcfbbe)
C           -4.06618277967581       -4.12607508890536       -3.31521013410963
C           -2.79080116020742       -4.64103834537903       -3.16266030253609
H           -3.84539623261209       -1.48176909363536       -1.24298873867169
C           -4.45911216552278       -2.99080384596038       -2.61782314002524
H           -4.76985172447731       -4.59018320039000       -3.99282191943553
C           -1.88886054181084       -4.02547809055157       -2.31125131354598
H           -2.50369760404354       -5.52535467196249       -3.71251372065951
C           -2.26773136525029       -2.88783921469761       -1.61897433918711
H           -0.89453809191820       -4.42812056058641       -2.19103575715733
C           -3.54373593185479       -2.37537403295058       -1.77326502364172
H           -1.57018473239272       -2.39603787164590       -0.95688985789293
C           -5.82699097237262       -2.37623013467868       -2.84873413307967
H           -6.55129655019319       -3.20153708556312       -3.08769411785301
H           -6.18435464236309       -1.93104504883814       -1.88215482045724
O           -5.82361194810500       -1.42733885703264       -3.82411493438598
O           -5.25061359704274       -2.47784688300454       -6.07608338575994
H           -5.49990901290981       -2.06731831980600       -5.16343534701005
H           -4.79096489131309       -1.76627422930262       -6.53110888966556

          :  Hamiltonian                  GFN2-xTB          :
         :: gradient norm              0.000760938496 Eh/a0 ::
         :: HOMO-LUMO gap              3.072186780038 eV    ::
         :: SCC energy               -28.345422803609 Eh    ::
         :: -> dispersion             -0.014654805771 Eh    ::
         :: -> Gsolv                  -0.118657754900 Eh    ::
         :: repulsion energy           0.374252371518 Eh    ::

    * Orbital Energies and Occupations

         #    Occupation            Energy/Eh            Energy/eV
      -------------------------------------------------------------
         1        2.0000           -0.6376018             -17.3500
       ...           ...                  ...                  ...
        13        2.0000           -0.4768618             -12.9761
        14        2.0000           -0.4732026             -12.8765
        15        2.0000           -0.4687981             -12.7566
        16        2.0000           -0.4620306             -12.5725
        17        2.0000           -0.4563328             -12.4174
        18        2.0000           -0.4456271             -12.1261
        19        2.0000           -0.4175073             -11.3610
        20        2.0000           -0.4119029             -11.2084
        21        2.0000           -0.4015498             -10.9267
        22        2.0000           -0.3939075             -10.7188
        23        2.0000           -0.3858720             -10.5001
        24        2.0000           -0.3267927              -8.8925
        25        2.0000           -0.3254816              -8.8568 (HOMO)
        26                         -0.2125810              -5.7846 (LUMO)
        27                         -0.2109353              -5.7398
        28                         -0.0830724              -2.2605
        29                          0.1109402               3.0188
        30                          0.1206889               3.2841
        31                          0.1291713               3.5149
        32                          0.1512281               4.1151
        33                          0.1680334               4.5724
        34                          0.1710197               4.6537
        35                          0.1920869               5.2269
        36                          0.2108097               5.7364
       ...                                ...                  ...
        45                          0.6728428              18.3090
      -------------------------------------------------------------
                  HL-Gap            0.1129006 Eh            3.0722 eV

     #   Z          covCN         q      C6AA      α(0)
     1   6 C        2.924    -0.031    28.779     8.797
     2   6 C        2.919    -0.038    28.950     8.823
     3   1 H        0.925     0.013     2.841     2.636
     4   6 C        2.966    -0.013    28.342     8.732
     5   1 H        0.925     0.016     2.802     2.618
     6   6 C        2.920    -0.043    29.071     8.842
     7   1 H        0.926     0.039     2.462     2.454
     8   6 C        2.919    -0.040    28.993     8.830
     9   1 H        0.926     0.047     2.359     2.402
    10   6 C        2.925    -0.035    28.864     8.810
    11   1 H        0.926     0.041     2.432     2.439
    12   6 C        3.672     0.165    18.167     6.109
    13   1 H        0.919    -0.089     5.199     3.566
    14   1 H        0.919    -0.086     5.090     3.528
    15   8 O        0.868    -0.824    32.327     7.623
    16   8 O        1.595    -0.734    28.640     7.222
    17   1 H        0.804     0.290     0.751     1.361
    18   1 H        0.805     0.323     0.655     1.272

Wiberg/Mayer (AO) data.
largest (>0.10) Wiberg bond orders for each atom

     #   Z sym  total        # sym  WBO       # sym  WBO       # sym  WBO
 ---------------------------------------------------------------------------
     1   6 C    3.991 --     2 C    1.446     4 C    1.413     5 H    0.969
                             8 C    0.110
     2   6 C    3.991 --     1 C    1.446     6 C    1.437     7 H    0.970
                            10 C    0.110
     3   1 H    1.000 --    10 C    0.970
     4   6 C    3.982 --    10 C    1.413     1 C    1.413    12 C    0.973
                             6 C    0.111
     5   1 H    1.000 --     1 C    0.969
     6   6 C    3.991 --     2 C    1.437     8 C    1.436     9 H    0.970
                             4 C    0.111
     7   1 H    0.998 --     2 C    0.970
     8   6 C    3.991 --    10 C    1.446     6 C    1.436    11 H    0.970
                             1 C    0.110
     9   1 H    0.997 --     6 C    0.970
    10   6 C    3.991 --     8 C    1.446     4 C    1.413     3 H    0.970
                             2 C    0.110
    11   1 H    0.998 --     8 C    0.970
    12   6 C    3.981 --    15 O    1.081     4 C    0.973    14 H    0.946
                            13 H    0.944
    13   1 H    0.992 --    12 C    0.944
    14   1 H    0.992 --    12 C    0.946
    15   8 O    1.445 --    12 C    1.081    17 H    0.153
    16   8 O    1.727 --    18 H    0.895    17 H    0.759
    17   1 H    0.916 --    16 O    0.759    15 O    0.153
    18   1 H    0.896 --    16 O    0.895
 ---------------------------------------------------------------------------

molecular dipole:
                 x           y           z       tot (Debye)
 q only:       11.196       3.759       7.730
   full:       11.002       3.863       7.903      35.804

 projected vibrational frequencies (cm⁻¹)
eigval :       -0.00    -0.00     0.00     0.00     0.00     0.00
eigval :      -17.31    35.20    44.10   107.21   127.75   302.27
eigval :      324.20   355.63   366.50   472.23   569.31   590.89
eigval :      633.86   672.78   754.37   811.78   873.49   893.15
eigval :      919.49   922.68   982.23   984.97   999.30  1056.49
eigval :     1082.89  1120.28  1175.74  1193.75  1212.08  1243.99
eigval :     1290.51  1328.24  1348.50  1438.15  1472.30  1500.90
eigval :     1568.49  1592.06  1600.84  2187.16  2468.39  2596.34
eigval :     3049.20  3058.54  3069.01  3071.66  3088.59  3627.74

   temp. (K)  partition function   enthalpy   heat capacity  entropy
                                   cal/mol     cal/K/mol   cal/K/mol   J/K/mol
 298.15  VIB  0.880E+04             4445.882     26.112     28.464
         ROT  0.564E+06              888.752      2.981     29.299
         INT  0.497E+10             5334.635     29.093     57.763
         TR   0.135E+28             1481.254      4.968     40.368
         TOT                        6815.8886    34.0608    98.1317   410.5829

       T/K    H(0)-H(T)+PV         H(T)/Eh          T*S/Eh         G(T)/Eh
   ------------------------------------------------------------------------
    298.15    0.108618E-01    0.148013E+00    0.466255E-01    0.101388E+00
   ------------------------------------------------------------------------

         :::::::::::::::::::::::::::::::::::::::::::::::::::::
         ::                  THERMODYNAMIC                  ::
         :::::::::::::::::::::::::::::::::::::::::::::::::::::
         :: total free energy         -27.869782647076 Eh   ::
         ::.................................................::
         :: total energy              -27.971170433306 Eh   ::
         :: zero point energy           0.137151496577 Eh   ::
         :: G(RRHO) w/o ZPVE           -0.035763710348 Eh   ::
         :: G(RRHO) contrib.            0.101387786230 Eh   ::
         :::::::::::::::::::::::::::::::::::::::::::::::::::::

           -------------------------------------------------
          | TOTAL ENERGY              -27.971170433306 Eh   |
          | TOTAL ENTHALPY            -27.823157126903 Eh   |
          | TOTAL FREE ENERGY         -27.869782647076 Eh   |
          | GRADIENT NORM               0.000761118186 Eh/α |
          | HOMO-LUMO GAP               3.072181482232 eV   |
           -------------------------------------------------

 * finished run on 2025/10/18 at 01:14:04.529
normal termination of xtb
