   * xtb version 6.7.1 (edcfbbe) compiled by 'albert@albert-system' on 2024-07-22

   ID    Z sym.   atoms
    1    6 C      1, 2, 4, 6, 8, 10, 12
    2    1 H      3, 5, 7, 9, 11, 13, 14, 17, 18
    3    8 O      15, 16

          program call               : xtb tb_lite_results_shiftn0p2_gp841_b0_rot270_complex.xyz --ohess --chrg -1 --alpb water
      * Solvation model:               ALPB
        Solvent                        water
        Solvent mass                       1.8000E+01 g/mol
          :  Hamiltonian                  GFN2-xTB          :
 * total energy  :   -27.9647164 Eh     change       -0.1883329E-09 Eh
 * total energy  :   -27.9694230 Eh     change       -0.4706684E-02 Eh
 * total energy  :   -27.9699322 Eh     change       -0.5091987E-03 Eh
 * total energy  :   -27.9702014 Eh     change       -0.2691360E-03 Eh
 * total energy  :   -27.9704307 Eh     change       -0.2292761E-03 Eh
 * total energy  :   -27.9704370 Eh     change       -0.6330981E-05 Eh
 * total energy  :   -27.9705746 Eh     change       -0.1376257E-03 Eh
 * total energy  :   -27.9706203 Eh     change       -0.4566503E-04 Eh
 * total energy  :   -27.9706848 Eh     change       -0.6450129E-04 Eh
 * total energy  :   -27.9707864 Eh     change       -0.1016122E-03 Eh
 * total energy  :   -27.9710340 Eh     change       -0.1127662E-04 Eh
 * total energy  :   -27.9710543 Eh     change       -0.2028718E-04 Eh
 * total energy  :   -27.9710678 Eh     change       -0.1358471E-04 Eh
 * total energy  :   -27.9710904 Eh     change       -0.2250691E-04 Eh
 * total energy  :   -27.9710679 Eh     change        0.2248568E-04 Eh
 * total energy  :   -27.9711183 Eh     change       -0.5047445E-04 Eh
 * total energy  :   -27.9711264 Eh     change       -0.8026632E-05 Eh
 * total energy  :   -27.9711329 Eh     change       -0.6566409E-05 Eh
 * total energy  :   -27.9711378 Eh     change       -0.4841534E-05 Eh
   *** GEOMETRY OPTIMIZATION CONVERGED AFTER 26 ITERATIONS ***

 final structure:
================
18
 xtb: 6.7.1 (edcfbbe)
C           -4.07528130600157       -4.14828372205530       -3.30260639559415
C           -2.79579125677924       -4.65332163325137       -3.15052820072193
H           -3.84969262705488       -1.45787351149560       -1.29173070984188
C           -4.46764110232560       -2.99966110851459       -2.62743686672547
H           -4.78243311836690       -4.63146766672892       -3.96301991417676
C           -1.88913424553030       -4.01407772303163       -2.32205531233866
H           -2.50874722244033       -5.54776269047928       -3.68373919400056
C           -2.26768636056954       -2.86332703624240       -1.65157554451290
H           -0.89127706898823       -4.40818018266143       -2.20313239967514
C           -3.54778251221766       -2.36114558634072       -1.80510458193541
H           -1.56671049081921       -2.35358300117212       -1.00692711001965
C           -5.83989133696725       -2.39505590276525       -2.85885476611446
H           -6.55801832579143       -3.22539544722276       -3.09959410262995
H           -6.20149601421758       -1.95396658784153       -1.89196313658447
O           -5.84258548248365       -1.44485576377909       -3.83261556117620
O           -5.19858732520721       -2.47601813041063       -6.07513717696882
H           -5.47856362077578       -2.07460930584032       -5.16753272538159
H           -4.70716110659498       -1.76643299603598       -6.49952167386554

          :  Hamiltonian                  GFN2-xTB          :
         :: gradient norm              0.000797215477 Eh/a0 ::
         :: HOMO-LUMO gap              3.071873463279 eV    ::
         :: SCC energy               -28.345433164498 Eh    ::
         :: -> dispersion             -0.014672983739 Eh    ::
         :: -> Gsolv                  -0.118639524528 Eh    ::
         :: repulsion energy           0.374295387957 Eh    ::

    * Orbital Energies and Occupations

         #    Occupation            Energy/Eh            Energy/eV
      -------------------------------------------------------------
         1        2.0000           -0.6376054             -17.3501
       ...           ...                  ...                  ...
        13        2.0000           -0.4766476             -12.9702
        14        2.0000           -0.4734302             -12.8827
        15        2.0000           -0.4688577             -12.7583
        16        2.0000           -0.4620677             -12.5735
        17        2.0000           -0.4565031             -12.4221
        18        2.0000           -0.4456033             -12.1255
        19        2.0000           -0.4175077             -11.3610
        20        2.0000           -0.4119635             -11.2101
        21        2.0000           -0.4015842             -10.9277
        22        2.0000           -0.3939155             -10.7190
        23        2.0000           -0.3859051             -10.5010
        24        2.0000           -0.3267665              -8.8918
        25        2.0000           -0.3254996              -8.8573 (HOMO)
        26                         -0.2126104              -5.7854 (LUMO)
        27                         -0.2109330              -5.7398
        28                         -0.0830823              -2.2608
        29                          0.1108371               3.0160
        30                          0.1209854               3.2922
        31                          0.1292750               3.5178
        32                          0.1507218               4.1013
        33                          0.1679675               4.5706
        34                          0.1710180               4.6536
        35                          0.1920446               5.2258
        36                          0.2108181               5.7367
       ...                                ...                  ...
        45                          0.6728971              18.3105
      -------------------------------------------------------------
                  HL-Gap            0.1128893 Eh            3.0719 eV

     #   Z          covCN         q      C6AA      α(0)
     1   6 C        2.924    -0.031    28.780     8.798
     2   6 C        2.919    -0.038    28.949     8.823
     3   1 H        0.925     0.013     2.841     2.636
     4   6 C        2.966    -0.013    28.341     8.732
     5   1 H        0.925     0.015     2.809     2.621
     6   6 C        2.920    -0.043    29.070     8.842
     7   1 H        0.926     0.039     2.460     2.453
     8   6 C        2.919    -0.040    28.993     8.830
     9   1 H        0.926     0.047     2.360     2.402
    10   6 C        2.925    -0.034    28.856     8.809
    11   1 H        0.926     0.041     2.433     2.439
    12   6 C        3.672     0.165    18.164     6.108
    13   1 H        0.919    -0.090     5.212     3.570
    14   1 H        0.919    -0.086     5.090     3.528
    15   8 O        0.867    -0.824    32.327     7.623
    16   8 O        1.595    -0.734    28.633     7.221
    17   1 H        0.803     0.290     0.751     1.362
    18   1 H        0.805     0.323     0.655     1.272

Wiberg/Mayer (AO) data.
largest (>0.10) Wiberg bond orders for each atom

     #   Z sym  total        # sym  WBO       # sym  WBO       # sym  WBO
 ---------------------------------------------------------------------------
     1   6 C    3.991 --     2 C    1.445     4 C    1.413     5 H    0.969
                             8 C    0.110
     2   6 C    3.991 --     1 C    1.445     6 C    1.437     7 H    0.970
                            10 C    0.110
     3   1 H    1.000 --    10 C    0.970
     4   6 C    3.982 --     1 C    1.413    10 C    1.413    12 C    0.973
                             6 C    0.111
     5   1 H    1.000 --     1 C    0.969
     6   6 C    3.991 --     2 C    1.437     8 C    1.436     9 H    0.970
                             4 C    0.111
     7   1 H    0.998 --     2 C    0.970
     8   6 C    3.991 --    10 C    1.446     6 C    1.436    11 H    0.970
                             1 C    0.110
     9   1 H    0.997 --     6 C    0.970
    10   6 C    3.991 --     8 C    1.446     4 C    1.413     3 H    0.970
                             2 C    0.110
    11   1 H    0.998 --     8 C    0.970
    12   6 C    3.981 --    15 O    1.082     4 C    0.973    14 H    0.946
                            13 H    0.944
    13   1 H    0.992 --    12 C    0.944
    14   1 H    0.992 --    12 C    0.946
    15   8 O    1.445 --    12 C    1.082    17 H    0.153
    16   8 O    1.727 --    18 H    0.895    17 H    0.759
    17   1 H    0.916 --    16 O    0.759    15 O    0.153
    18   1 H    0.896 --    16 O    0.895
 ---------------------------------------------------------------------------

molecular dipole:
                 x           y           z       tot (Debye)
 q only:       11.219       3.784       7.760
   full:       11.026       3.884       7.938      35.916

 projected vibrational frequencies (cm⁻¹)
eigval :       -0.00    -0.00    -0.00    -0.00     0.00     0.00
eigval :      -11.35    42.01    84.29   110.76   128.50   301.83
eigval :      324.26   355.73   366.52   472.40   569.48   590.90
eigval :      631.22   672.72   754.26   811.86   873.30   893.02
eigval :      919.53   922.48   982.42   986.67  1004.80  1057.07
eigval :     1082.98  1120.13  1175.84  1193.53  1212.10  1244.82
eigval :     1290.44  1328.32  1349.52  1438.19  1472.40  1500.72
eigval :     1565.80  1592.26  1600.92  2192.15  2467.07  2595.88
eigval :     3049.90  3058.23  3069.29  3071.82  3088.95  3624.17

   temp. (K)  partition function   enthalpy   heat capacity  entropy
                                   cal/mol     cal/K/mol   cal/K/mol   J/K/mol
 298.15  VIB  0.628E+04             4388.732     26.720     28.284
         ROT  0.562E+06              888.752      2.981     29.292
         INT  0.353E+10             5277.485     29.701     57.576
         TR   0.135E+28             1481.254      4.968     40.368
         TOT                        6758.7387    34.6695    97.9438   409.7970

       T/K    H(0)-H(T)+PV         H(T)/Eh          T*S/Eh         G(T)/Eh
   ------------------------------------------------------------------------
    298.15    0.107707E-01    0.148037E+00    0.465363E-01    0.101500E+00
   ------------------------------------------------------------------------

         :::::::::::::::::::::::::::::::::::::::::::::::::::::
         ::                  THERMODYNAMIC                  ::
         :::::::::::::::::::::::::::::::::::::::::::::::::::::
         :: total free energy         -27.869637333432 Eh   ::
         ::.................................................::
         :: total energy              -27.971137777684 Eh   ::
         :: zero point energy           0.137265979174 Eh   ::
         :: G(RRHO) w/o ZPVE           -0.035765534923 Eh   ::
         :: G(RRHO) contrib.            0.101500444252 Eh   ::
         :::::::::::::::::::::::::::::::::::::::::::::::::::::

           -------------------------------------------------
          | TOTAL ENERGY              -27.971137777684 Eh   |
          | TOTAL ENTHALPY            -27.823101062807 Eh   |
          | TOTAL FREE ENERGY         -27.869637333432 Eh   |
          | GRADIENT NORM               0.000797561125 Eh/α |
          | HOMO-LUMO GAP               3.071873004440 eV   |
           -------------------------------------------------

 * finished run on 2025/10/18 at 01:13:59.519
normal termination of xtb
