   * xtb version 6.7.1 (edcfbbe) compiled by 'albert@albert-system' on 2024-07-22

   ID    Z sym.   atoms
    1    6 C      1, 2, 4, 6, 8, 10, 12
    2    1 H      3, 5, 7, 9, 11, 13, 14, 17, 18
    3    8 O      15, 16

          program call               : xtb tb_lite_results_shiftn0p25_gp868_b0_rot270_complex.xyz --ohess --chrg -1 --alpb water
      * Solvation model:               ALPB
        Solvent                        water
        Solvent mass                       1.8000E+01 g/mol
          :  Hamiltonian                  GFN2-xTB          :
 * total energy  :   -27.9650404 Eh     change       -0.2404370E-09 Eh
 * total energy  :   -27.9700395 Eh     change       -0.4999063E-02 Eh
 * total energy  :   -27.9704726 Eh     change       -0.4331307E-03 Eh
 * total energy  :   -27.9707028 Eh     change       -0.2301778E-03 Eh
 * total energy  :   -27.9708411 Eh     change       -0.1383151E-03 Eh
 * total energy  :   -27.9709395 Eh     change       -0.9837994E-04 Eh
 * total energy  :   -27.9709898 Eh     change       -0.5029912E-04 Eh
 * total energy  :   -27.9710104 Eh     change       -0.2061988E-04 Eh
 * total energy  :   -27.9710300 Eh     change       -0.1955080E-04 Eh
 * total energy  :   -27.9710498 Eh     change       -0.1979243E-04 Eh
 * total energy  :   -27.9711475 Eh     change        0.1069118E-04 Eh
 * total energy  :   -27.9712163 Eh     change       -0.6878515E-04 Eh
 * total energy  :   -27.9712301 Eh     change       -0.1378936E-04 Eh
 * total energy  :   -27.9712395 Eh     change       -0.9377901E-05 Eh
 * total energy  :   -27.9712546 Eh     change       -0.1513812E-04 Eh
 * total energy  :   -27.9712667 Eh     change       -0.1205283E-04 Eh
 * total energy  :   -27.9712812 Eh     change       -0.1452681E-04 Eh
 * total energy  :   -27.9712955 Eh     change       -0.1424464E-04 Eh
 * total energy  :   -27.9712995 Eh     change       -0.4071084E-05 Eh
   *** GEOMETRY OPTIMIZATION CONVERGED AFTER 22 ITERATIONS ***

 final structure:
================
18
 xtb: 6.7.1 (edcfbbe)
C           -4.14472506943786       -4.06839244789176       -3.34326462119315
C           -2.85851899776234       -4.57235823019244       -3.26943874959582
H           -3.82209375457076       -1.43186877278527       -1.27309415465685
C           -4.50536039294026       -2.93846724772513       -2.61907691260779
H           -4.88414878775512       -4.53361824845648       -3.98049875758349
C           -1.91281407452923       -3.95320699741437       -2.46945375274206
H           -2.59762680303490       -5.45149839796598       -3.84003356379597
C           -2.25975436198936       -2.82242649642506       -1.75099202685854
H           -0.90977720543549       -4.34785083362250       -2.41059487299800
C           -3.54707576720072       -2.31921195838214       -1.82783594275820
H           -1.52875493557453       -2.32769417281300       -1.12855884483853
C           -5.89688711261885       -2.35060005939687       -2.76589255727574
H           -6.63812402826760       -3.19645427121957       -2.75714815148221
H           -6.12409868770028       -1.74228478772158       -1.85078658048444
O           -6.04005315629070       -1.58330959350617       -3.88008621002203
O           -5.92984643855940       -2.98027249924348       -6.01433252452029
H           -5.98447391034985       -2.43558676758428       -5.14193278288170
H           -5.61938777879613       -2.34284433372690       -6.66418632236971

          :  Hamiltonian                  GFN2-xTB          :
         :: gradient norm              0.000657983342 Eh/a0 ::
         :: HOMO-LUMO gap              3.057254618485 eV    ::
         :: SCC energy               -28.345763934269 Eh    ::
         :: -> dispersion             -0.014599427145 Eh    ::
         :: -> Gsolv                  -0.118637922264 Eh    ::
         :: repulsion energy           0.374464402695 Eh    ::

    * Orbital Energies and Occupations

         #    Occupation            Energy/Eh            Energy/eV
      -------------------------------------------------------------
         1        2.0000           -0.6380655             -17.3626
       ...           ...                  ...                  ...
        13        2.0000           -0.4782982             -13.0152
        14        2.0000           -0.4724331             -12.8556
        15        2.0000           -0.4684279             -12.7466
        16        2.0000           -0.4620250             -12.5723
        17        2.0000           -0.4559893             -12.4081
        18        2.0000           -0.4454882             -12.1224
        19        2.0000           -0.4175188             -11.3613
        20        2.0000           -0.4117191             -11.2034
        21        2.0000           -0.4018611             -10.9352
        22        2.0000           -0.3939808             -10.7208
        23        2.0000           -0.3859312             -10.5017
        24        2.0000           -0.3264072              -8.8820
        25        2.0000           -0.3249247              -8.8416 (HOMO)
        26                         -0.2125728              -5.7844 (LUMO)
        27                         -0.2109484              -5.7402
        28                         -0.0829825              -2.2581
        29                          0.1110787               3.0226
        30                          0.1189594               3.2371
        31                          0.1276986               3.4749
        32                          0.1523693               4.1462
        33                          0.1683685               4.5815
        34                          0.1712708               4.6605
        35                          0.1933317               5.2608
        36                          0.2105667               5.7298
       ...                                ...                  ...
        45                          0.6733787              18.3236
      -------------------------------------------------------------
                  HL-Gap            0.1123518 Eh            3.0572 eV

     #   Z          covCN         q      C6AA      α(0)
     1   6 C        2.925    -0.031    28.766     8.795
     2   6 C        2.919    -0.038    28.954     8.824
     3   1 H        0.925     0.013     2.842     2.636
     4   6 C        2.966    -0.014    28.358     8.735
     5   1 H        0.925     0.019     2.751     2.594
     6   6 C        2.920    -0.043    29.071     8.842
     7   1 H        0.926     0.038     2.471     2.458
     8   6 C        2.919    -0.040    28.992     8.830
     9   1 H        0.926     0.047     2.361     2.403
    10   6 C        2.924    -0.037    28.922     8.819
    11   1 H        0.926     0.042     2.428     2.437
    12   6 C        3.672     0.165    18.164     6.108
    13   1 H        0.919    -0.090     5.214     3.571
    14   1 H        0.919    -0.086     5.106     3.534
    15   8 O        0.866    -0.826    32.394     7.631
    16   8 O        1.595    -0.732    28.591     7.216
    17   1 H        0.803     0.291     0.750     1.361
    18   1 H        0.805     0.324     0.654     1.270

Wiberg/Mayer (AO) data.
largest (>0.10) Wiberg bond orders for each atom

     #   Z sym  total        # sym  WBO       # sym  WBO       # sym  WBO
 ---------------------------------------------------------------------------
     1   6 C    3.991 --     2 C    1.448     4 C    1.411     5 H    0.969
                             8 C    0.111
     2   6 C    3.991 --     1 C    1.448     6 C    1.434     7 H    0.970
                            10 C    0.109
     3   1 H    1.000 --    10 C    0.969
     4   6 C    3.982 --    10 C    1.416     1 C    1.411    12 C    0.973
                             6 C    0.111
     5   1 H    1.000 --     1 C    0.969
     6   6 C    3.991 --     8 C    1.439     2 C    1.434     9 H    0.970
                             4 C    0.111
     7   1 H    0.998 --     2 C    0.970
     8   6 C    3.991 --    10 C    1.443     6 C    1.439    11 H    0.970
                             1 C    0.111
     9   1 H    0.997 --     6 C    0.970
    10   6 C    3.991 --     8 C    1.443     4 C    1.416     3 H    0.969
                             2 C    0.109
    11   1 H    0.998 --     8 C    0.970
    12   6 C    3.981 --    15 O    1.082     4 C    0.973    14 H    0.947
                            13 H    0.942
    13   1 H    0.992 --    12 C    0.942
    14   1 H    0.992 --    12 C    0.947
    15   8 O    1.440 --    12 C    1.082    17 H    0.150
    16   8 O    1.729 --    18 H    0.894    17 H    0.761
    17   1 H    0.916 --    16 O    0.761    15 O    0.150
    18   1 H    0.895 --    16 O    0.894
 ---------------------------------------------------------------------------

molecular dipole:
                 x           y           z       tot (Debye)
 q only:       11.684       4.103       7.596
   full:       11.517       4.240       7.777      36.929

 projected vibrational frequencies (cm⁻¹)
eigval :       -0.00    -0.00    -0.00     0.00     0.00     0.00
eigval :       -9.63    52.98   102.52   129.07   180.61   296.03
eigval :      329.14   349.07   365.57   470.83   569.29   590.73
eigval :      634.52   672.90   753.82   811.43   874.33   894.59
eigval :      918.76   925.19   980.45   982.72   993.80  1056.34
eigval :     1083.45  1120.70  1175.67  1194.32  1211.45  1245.81
eigval :     1290.83  1328.53  1350.12  1438.03  1472.54  1499.90
eigval :     1565.51  1592.59  1600.95  2208.78  2461.99  2596.28
eigval :     3047.84  3063.65  3069.88  3073.90  3089.05  3625.11

   temp. (K)  partition function   enthalpy   heat capacity  entropy
                                   cal/mol     cal/K/mol   cal/K/mol   J/K/mol
 298.15  VIB  0.368E+04             4284.080     26.966     27.206
         ROT  0.572E+06              888.752      2.981     29.327
         INT  0.211E+10             5172.833     29.947     56.533
         TR   0.135E+28             1481.254      4.968     40.368
         TOT                        6654.0867    34.9153    96.9008   405.4332

       T/K    H(0)-H(T)+PV         H(T)/Eh          T*S/Eh         G(T)/Eh
   ------------------------------------------------------------------------
    298.15    0.106040E-01    0.148094E+00    0.460407E-01    0.102053E+00
   ------------------------------------------------------------------------

         :::::::::::::::::::::::::::::::::::::::::::::::::::::
         ::                  THERMODYNAMIC                  ::
         :::::::::::::::::::::::::::::::::::::::::::::::::::::
         :: total free energy         -27.869246077330 Eh   ::
         ::.................................................::
         :: total energy              -27.971299531855 Eh   ::
         :: zero point energy           0.137490212675 Eh   ::
         :: G(RRHO) w/o ZPVE           -0.035436758149 Eh   ::
         :: G(RRHO) contrib.            0.102053454525 Eh   ::
         :::::::::::::::::::::::::::::::::::::::::::::::::::::

           -------------------------------------------------
          | TOTAL ENERGY              -27.971299531855 Eh   |
          | TOTAL ENTHALPY            -27.823205357132 Eh   |
          | TOTAL FREE ENERGY         -27.869246077330 Eh   |
          | GRADIENT NORM               0.000658404661 Eh/α |
          | HOMO-LUMO GAP               3.057249284552 eV   |
           -------------------------------------------------

 * finished run on 2025/10/18 at 01:13:56.413
normal termination of xtb
