   * xtb version 6.7.1 (edcfbbe) compiled by 'albert@albert-system' on 2024-07-22

   ID    Z sym.   atoms
    1    6 C      1, 2, 5, 7, 9, 11
    2    1 H      3, 6, 10, 12, 14, 15
    3    8 O      4, 13
    4    7 N      8

          program call               : xtb tb_lite_results_shiftn0p1_gp236_b0_rot270_complex.xyz --ohess --chrg -1 --alpb water
      * Solvation model:               ALPB
        Solvent                        water
        Solvent mass                       1.8000E+01 g/mol
          :  Hamiltonian                  GFN2-xTB          :
 * total energy  :   -27.0545874 Eh     change       -0.2865264E-10 Eh
 * total energy  :   -27.1224594 Eh     change       -0.6787204E-01 Eh
 * total energy  :   -26.8570410 Eh     change        0.2654185E+00 Eh
 * total energy  :   -27.1476208 Eh     change       -0.2905799E+00 Eh
 * total energy  :   -27.1530191 Eh     change       -0.5398229E-02 Eh
 * total energy  :   -27.1539996 Eh     change       -0.9805777E-03 Eh
 * total energy  :   -27.1541644 Eh     change       -0.1647209E-03 Eh
 * total energy  :   -27.1543952 Eh     change       -0.2308437E-03 Eh
 * total energy  :   -27.1544166 Eh     change       -0.2137879E-04 Eh
 * total energy  :   -27.1544728 Eh     change       -0.5619016E-04 Eh
 * total energy  :   -27.1547020 Eh     change       -0.6202054E-05 Eh
 * total energy  :   -27.1547093 Eh     change       -0.7313795E-05 Eh
 * total energy  :   -27.1547193 Eh     change       -0.9949711E-05 Eh
 * total energy  :   -27.1547312 Eh     change       -0.1194818E-04 Eh
 * total energy  :   -27.1547449 Eh     change       -0.1372045E-04 Eh
 * total energy  :   -27.1547578 Eh     change       -0.1288694E-04 Eh
 * total energy  :   -27.1547548 Eh     change        0.3043132E-05 Eh
 * total energy  :   -27.1547692 Eh     change       -0.1436920E-04 Eh
 * total energy  :   -27.1547708 Eh     change       -0.1657507E-05 Eh
   *** GEOMETRY OPTIMIZATION CONVERGED AFTER 31 ITERATIONS ***

 final structure:
================
15
 xtb: 6.7.1 (edcfbbe)
C           -3.59027073897513        0.78673014909200       -0.04342057420965
C           -3.68767141844477       -0.55907937501099       -0.00663674507991
H           -0.19410088082284        1.12073672205226        0.01433159196763
O           -2.24473271377450        2.72706159480487       -0.08532093972275
C           -2.51918380631076       -1.42773446900985        0.03786377737560
H           -4.65241856823882       -1.04852333306669       -0.00885362684792
C           -1.24421123012814       -0.72277787786328        0.04373043301344
N           -2.60632244311924       -2.69784377395668        0.07023024819070
C           -1.15634490461862        0.62391059314379        0.00691429841223
H           -0.35442048883238       -1.33685796931353        0.08018486027037
C           -2.32208878430297        1.46340128481508       -0.04259035898914
H           -4.47475967053327        1.41074080344953       -0.07633150523528
O            0.21527615129064        3.92770409470349       -0.10293111254996
H           -0.67355127079351        3.51282057879562       -0.04905750053839
H            0.13350969413135        4.62179412457142       -0.76551223066485

          :  Hamiltonian                  GFN2-xTB          :
         :: gradient norm              0.000446738823 Eh/a0 ::
         :: HOMO-LUMO gap              0.055705814752 eV    ::
         :: SCC energy               -27.500615157645 Eh    ::
         :: -> dispersion             -0.011737354436 Eh    ::
         :: -> Gsolv                  -0.097042264215 Eh    ::
         :: repulsion energy           0.345844346571 Eh    ::

    * Orbital Energies and Occupations

         #    Occupation            Energy/Eh            Energy/eV
      -------------------------------------------------------------
         1        2.0000           -0.6737069             -18.3325
       ...           ...                  ...                  ...
        12        2.0000           -0.4982367             -13.5577
        13        2.0000           -0.4860160             -13.2252
        14        2.0000           -0.4781487             -13.0111
        15        2.0000           -0.4735435             -12.8858
        16        2.0000           -0.4519042             -12.2969
        17        2.0000           -0.4508763             -12.2690
        18        2.0000           -0.4342895             -11.8176
        19        2.0000           -0.4221453             -11.4872
        20        2.0000           -0.4036255             -10.9832
        21        2.0000           -0.3854900             -10.4897
        22        2.0000           -0.3739351             -10.1753
        23        2.0000           -0.3708394             -10.0911
        24        1.4920           -0.3002750              -8.1709 (HOMO)
        25        0.5080           -0.2982277              -8.1152 (LUMO)
        26                         -0.2100396              -5.7155
        27                         -0.1691414              -4.6026
        28                         -0.0730036              -1.9865
        29                          0.1073036               2.9199
        30                          0.1301922               3.5427
        31                          0.1509129               4.1065
        32                          0.1601981               4.3592
        33                          0.1796366               4.8882
        34                          0.2043843               5.5616
        35                          0.2798390               7.6148
       ...                                ...                  ...
        42                          0.7286529              19.8277
      -------------------------------------------------------------
                  HL-Gap            0.0020473 Eh            0.0557 eV

     #   Z          covCN         q      C6AA      α(0)
     1   6 C        2.903    -0.074    29.848     8.958
     2   6 C        2.909    -0.047    29.176     8.857
     3   1 H        0.925     0.033     2.537     2.491
     4   8 O        0.857    -0.586    25.771     6.806
     5   6 C        2.882     0.102    25.730     8.316
     6   1 H        0.925     0.027     2.633     2.537
     7   6 C        2.909    -0.047    29.164     8.855
     8   7 N        0.923    -0.536    34.332     8.467
     9   6 C        2.903    -0.076    29.884     8.963
    10   1 H        0.925     0.026     2.647     2.544
    11   6 C        2.833     0.194    23.869     8.006
    12   1 H        0.925     0.026     2.641     2.542
    13   8 O        1.608    -0.702    27.751     7.110
    14   1 H        0.803     0.309     0.696     1.311
    15   1 H        0.805     0.350     0.588     1.205

Wiberg/Mayer (AO) data.
largest (>0.10) Wiberg bond orders for each atom

     #   Z sym  total        # sym  WBO       # sym  WBO       # sym  WBO
 ---------------------------------------------------------------------------
     1   6 C    3.955 --     2 C    1.678    11 C    1.154    12 H    0.965
     2   6 C    3.834 --     1 C    1.678     5 C    1.085     6 H    0.969
     3   1 H    0.994 --     9 C    0.963
     4   8 O    1.732 --    11 C    1.465
     5   6 C    3.960 --     8 N    1.734     2 C    1.085     7 C    1.085
     6   1 H    0.998 --     2 C    0.969
     7   6 C    3.835 --     9 C    1.679     5 C    1.085    10 H    0.969
     8   7 N    1.874 --     5 C    1.734
     9   6 C    3.956 --     7 C    1.679    11 C    1.155     3 H    0.963
    10   1 H    0.998 --     7 C    0.969
    11   6 C    3.839 --     4 O    1.465     9 C    1.155     1 C    1.154
    12   1 H    0.995 --     1 C    0.965
    13   8 O    1.754 --    15 H    0.877    14 H    0.846
    14   1 H    0.905 --    13 O    0.846
    15   1 H    0.878 --    13 O    0.877
 ---------------------------------------------------------------------------

molecular dipole:
                 x           y           z       tot (Debye)
 q only:        3.817      -0.193      -0.381
   full:        3.658       0.133      -0.479       9.383

 projected vibrational frequencies (cm⁻¹)
eigval :       -0.00    -0.00    -0.00     0.00     0.00     0.00
eigval :       33.78    49.92    93.74   118.20   181.60   251.55
eigval :      299.82   381.77   428.91   440.52   463.24   473.01
eigval :      603.06   674.07   695.05   744.69   773.96   818.55
eigval :      834.46   905.97   912.80   944.94  1072.08  1169.48
eigval :     1201.56  1251.21  1324.51  1366.20  1495.43  1510.28
eigval :     1519.85  1523.01  1614.22  3033.60  3040.90  3053.13
eigval :     3060.82  3155.28  3599.36

   temp. (K)  partition function   enthalpy   heat capacity  entropy
                                   cal/mol     cal/K/mol   cal/K/mol   J/K/mol
 298.15  VIB  0.159E+04             4401.294     26.986     27.332
         ROT  0.564E+06              888.752      2.981     29.299
         INT  0.897E+09             5290.046     29.966     56.631
         TR   0.134E+28             1481.254      4.968     40.344
         TOT                        6771.3002    34.9346    96.9751   405.7437

       T/K    H(0)-H(T)+PV         H(T)/Eh          T*S/Eh         G(T)/Eh
   ------------------------------------------------------------------------
    298.15    0.107908E-01    0.113569E+00    0.460760E-01    0.674933E-01
   ------------------------------------------------------------------------

         :::::::::::::::::::::::::::::::::::::::::::::::::::::
         ::                  THERMODYNAMIC                  ::
         :::::::::::::::::::::::::::::::::::::::::::::::::::::
         :: total free energy         -27.087277518795 Eh   ::
         ::.................................................::
         :: total energy              -27.154770809583 Eh   ::
         :: zero point energy           0.102778528410 Eh   ::
         :: G(RRHO) w/o ZPVE           -0.035285237621 Eh   ::
         :: G(RRHO) contrib.            0.067493290788 Eh   ::
         :::::::::::::::::::::::::::::::::::::::::::::::::::::

           -------------------------------------------------
          | TOTAL ENERGY              -27.154770809583 Eh   |
          | TOTAL ENTHALPY            -27.041201527486 Eh   |
          | TOTAL FREE ENERGY         -27.087277518795 Eh   |
          | GRADIENT NORM               0.000446550446 Eh/α |
          | HOMO-LUMO GAP               0.055709354496 eV   |
           -------------------------------------------------

 * finished run on 2025/10/17 at 02:03:32.210
normal termination of xtb
