   * xtb version 6.7.1 (edcfbbe) compiled by 'albert@albert-system' on 2024-07-22

   ID    Z sym.   atoms
    1    6 C      1, 2, 5, 7, 9, 11
    2    1 H      3, 6, 10, 12
    3    8 O      4
    4    7 N      8

          program call               : xtb tb_lite_results_shiftn0p15_gp236_b0_rot180_solute.xyz --ohess --chrg -1
          :  Hamiltonian                  GFN2-xTB          :
 * total energy  :   -21.8740941 Eh     change        0.7007728E-10 Eh
 * total energy  :   -21.9426734 Eh     change       -0.6857927E-01 Eh
 * total energy  :   -21.6543988 Eh     change        0.2882746E+00 Eh
 * total energy  :   -21.9679231 Eh     change       -0.3135242E+00 Eh
 * total energy  :   -21.9730029 Eh     change       -0.5079807E-02 Eh
 * total energy  :   -21.9739125 Eh     change       -0.9096077E-03 Eh
 * total energy  :   -21.9740815 Eh     change       -0.1690309E-03 Eh
 * total energy  :   -21.9741441 Eh     change       -0.6256525E-04 Eh
 * total energy  :   -21.9741580 Eh     change       -0.1397464E-04 Eh
 * total energy  :   -21.9741534 Eh     change        0.4673725E-05 Eh
 * total energy  :   -21.9741620 Eh     change       -0.8647427E-05 Eh
 * total energy  :   -21.9741629 Eh     change       -0.8357336E-06 Eh
   *** GEOMETRY OPTIMIZATION CONVERGED AFTER 12 ITERATIONS ***

 final structure:
================
12
 xtb: 6.7.1 (edcfbbe)
C           -3.59659834653166        0.77710084631237       -0.00001279674778
C           -3.67156826194907       -0.57053734294403       -0.00004175556236
H           -0.20450826189202        1.15567847785641       -0.00007048193795
O           -2.27391168212977        2.74041059309484       -0.00002138739021
C           -2.49390387202173       -1.43058852114361       -0.00002975496957
H           -4.63355272796815       -1.07267676582467       -0.00000848130287
C           -1.23225519397870       -0.69917770049865       -0.00001689550659
N           -2.56227720418322       -2.69930574802856       -0.00003946893251
C           -1.16503298837815        0.64887107521802       -0.00004037312429
H           -0.32847725835584       -1.29977181037848       -0.00005326540314
C           -2.33980251176912        1.49070875248211       -0.00002503957176
H           -4.49848283383735        1.38212514579489        0.00002070053171

          :  Hamiltonian                  GFN2-xTB          :
         :: gradient norm              0.000366075501 Eh/a0 ::
         :: HOMO-LUMO gap              0.056352334792 eV    ::
         :: SCC energy               -22.288926805882 Eh    ::
         :: -> dispersion             -0.010369955431 Eh    ::
         :: repulsion energy           0.314763950925 Eh    ::

    * Orbital Energies and Occupations

         #    Occupation            Energy/Eh            Energy/eV
      -------------------------------------------------------------
         1        2.0000           -0.5098393             -13.8734
       ...           ...                  ...                  ...
         8        2.0000           -0.3576711              -9.7327
         9        2.0000           -0.3478296              -9.4649
        10        2.0000           -0.3395709              -9.2402
        11        2.0000           -0.3271093              -8.9011
        12        2.0000           -0.3247521              -8.8370
        13        2.0000           -0.2966419              -8.0720
        14        2.0000           -0.2944491              -8.0124
        15        2.0000           -0.2815943              -7.6626
        16        2.0000           -0.2511497              -6.8341
        17        2.0000           -0.2261959              -6.1551
        18        2.0000           -0.2106460              -5.7320
        19        2.0000           -0.2099115              -5.7120
        20        1.4967           -0.1396047              -3.7988 (HOMO)
        21        0.5033           -0.1375339              -3.7425 (LUMO)
        22                         -0.0576599              -1.5690
        23                         -0.0092933              -0.2529
        24                          0.0820955               2.2339
        25                          0.2669902               7.2652
        26                          0.2929042               7.9703
        27                          0.2935487               7.9879
        28                          0.3322531               9.0411
        29                          0.3485652               9.4849
        30                          0.4977095              13.5434
        31                          0.5134035              13.9704
       ...                                ...                  ...
        36                          0.8883757              24.1739
      -------------------------------------------------------------
                  HL-Gap            0.0020708 Eh            0.0563 eV

     #   Z          covCN         q      C6AA      α(0)
     1   6 C        2.903    -0.077    29.933     8.971
     2   6 C        2.908    -0.051    29.264     8.870
     3   1 H        0.925    -0.003     3.115     2.760
     4   8 O        0.857    -0.527    24.397     6.622
     5   6 C        2.881     0.101    25.766     8.322
     6   1 H        0.925    -0.002     3.098     2.752
     7   6 C        2.908    -0.051    29.266     8.871
     8   7 N        0.922    -0.500    33.213     8.328
     9   6 C        2.903    -0.077    29.932     8.971
    10   1 H        0.925    -0.002     3.099     2.753
    11   6 C        2.830     0.194    23.857     8.004
    12   1 H        0.925    -0.003     3.116     2.760

Wiberg/Mayer (AO) data.
largest (>0.10) Wiberg bond orders for each atom

     #   Z sym  total        # sym  WBO       # sym  WBO       # sym  WBO
 ---------------------------------------------------------------------------
     1   6 C    3.947 --     2 C    1.687    11 C    1.131    12 H    0.966
     2   6 C    3.838 --     1 C    1.687     5 C    1.082     6 H    0.970
     3   1 H    0.996 --     9 C    0.966
     4   8 O    1.745 --    11 C    1.545
     5   6 C    3.963 --     8 N    1.741     7 C    1.082     2 C    1.082
     6   1 H    0.999 --     2 C    0.970
     7   6 C    3.839 --     9 C    1.687     5 C    1.082    10 H    0.970
     8   7 N    1.883 --     5 C    1.741
     9   6 C    3.947 --     7 C    1.687    11 C    1.131     3 H    0.966
    10   1 H    0.999 --     7 C    0.970
    11   6 C    3.862 --     4 O    1.545     1 C    1.131     9 C    1.131
    12   1 H    0.996 --     1 C    0.966
 ---------------------------------------------------------------------------

molecular dipole:
                 x           y           z       tot (Debye)
 q only:        4.572       0.004       0.000
   full:        4.588       0.296       0.000      11.685

 projected vibrational frequencies (cm⁻¹)
eigval :       -0.00    -0.00     0.00     0.00     0.00     0.00
eigval :       98.94   254.42   294.33   374.05   434.84   441.56
eigval :      467.27   598.56   693.09   735.33   772.15   809.70
eigval :      826.13   906.29   909.78   939.31  1062.01  1174.92
eigval :     1200.38  1238.63  1340.96  1358.11  1509.98  1523.87
eigval :     1560.37  1622.86  2993.90  2996.88  3014.80  3021.96

   temp. (K)  partition function   enthalpy   heat capacity  entropy
                                   cal/mol     cal/K/mol   cal/K/mol   J/K/mol
 298.15  VIB   10.8                 2290.749     18.384     12.380
         ROT  0.125E+06              888.752      2.981     26.297
         INT  0.135E+07             3179.501     21.364     38.677
         TR   0.106E+28             1481.254      4.968     39.876
         TOT                        4660.7552    26.3326    78.5537   328.6685

       T/K    H(0)-H(T)+PV         H(T)/Eh          T*S/Eh         G(T)/Eh
   ------------------------------------------------------------------------
    298.15    0.742739E-02    0.875628E-01    0.373234E-01    0.502394E-01
   ------------------------------------------------------------------------

         :::::::::::::::::::::::::::::::::::::::::::::::::::::
         ::                  THERMODYNAMIC                  ::
         :::::::::::::::::::::::::::::::::::::::::::::::::::::
         :: total free energy         -21.923923454083 Eh   ::
         ::.................................................::
         :: total energy              -21.974162854980 Eh   ::
         :: zero point energy           0.080135397040 Eh   ::
         :: G(RRHO) w/o ZPVE           -0.029895996144 Eh   ::
         :: G(RRHO) contrib.            0.050239400896 Eh   ::
         :::::::::::::::::::::::::::::::::::::::::::::::::::::

           -------------------------------------------------
          | TOTAL ENERGY              -21.974162854980 Eh   |
          | TOTAL ENTHALPY            -21.886600071810 Eh   |
          | TOTAL FREE ENERGY         -21.923923454083 Eh   |
          | GRADIENT NORM               0.000366222287 Eh/α |
          | HOMO-LUMO GAP               0.056349327129 eV   |
           -------------------------------------------------

 * finished run on 2025/10/17 at 02:03:27.803
normal termination of xtb
