   * xtb version 6.7.1 (edcfbbe) compiled by 'albert@albert-system' on 2024-07-22

   ID    Z sym.   atoms
    1    6 C      1, 2, 5, 7, 9, 11
    2    1 H      3, 6, 10, 12, 14, 15
    3    8 O      4, 13
    4    7 N      8

          program call               : xtb tb_lite_results_shiftn0p1_gp237_b0_rot0_complex.xyz --ohess --chrg -1 --alpb water
      * Solvation model:               ALPB
        Solvent                        water
        Solvent mass                       1.8000E+01 g/mol
          :  Hamiltonian                  GFN2-xTB          :
 * total energy  :   -27.0554077 Eh     change       -0.5439205E-11 Eh
 * total energy  :   -27.1233117 Eh     change       -0.6790399E-01 Eh
 * total energy  :   -26.8578063 Eh     change        0.2655053E+00 Eh
 * total energy  :   -27.1486925 Eh     change       -0.2908861E+00 Eh
 * total energy  :   -27.1535693 Eh     change       -0.4876861E-02 Eh
 * total energy  :   -27.1545787 Eh     change       -0.1009397E-02 Eh
 * total energy  :   -27.1547724 Eh     change       -0.1936582E-03 Eh
 * total energy  :   -27.1548350 Eh     change       -0.6265784E-04 Eh
 * total energy  :   -27.1548556 Eh     change       -0.2053154E-04 Eh
 * total energy  :   -27.1548654 Eh     change       -0.9872453E-05 Eh
 * total energy  :   -27.1548692 Eh     change       -0.3739342E-05 Eh
   *** GEOMETRY OPTIMIZATION CONVERGED AFTER 11 ITERATIONS ***

 final structure:
================
15
 xtb: 6.7.1 (edcfbbe)
C           -3.60704983816471        0.76251109275479       -0.00000713289664
C           -3.67255950957682       -0.58598312688140       -0.00000698497974
H           -0.22020654816688        1.17013579197610       -0.00005564444044
O           -2.28777206595095        2.73051578035464       -0.00002600696812
C           -2.48568318925705       -1.43011427675411       -0.00003348102933
H           -4.62670930368360       -1.09524936687679       -0.00003656421299
C           -1.22615950084605       -0.69890169973081       -0.00005042483232
N           -2.54454882013434       -2.70218689908732       -0.00002471387414
C           -1.17006448858894        0.64990963793362       -0.00004934450503
H           -0.32277022017496       -1.29344388325126       -0.00002510974541
C           -2.35345102815712        1.46529332670779       -0.00002895108308
H           -4.50665751890540        1.36524321679264        0.00000206076173
O           -4.62540675951856        4.15199804158145       -0.00001701080048
H           -3.78212365474204        3.64691405948499       -0.00002249206780
H           -4.36661649981885        5.07949476638013       -0.00001757942165

          :  Hamiltonian                  GFN2-xTB          :
         :: gradient norm              0.000767488704 Eh/a0 ::
         :: HOMO-LUMO gap              0.055613575638 eV    ::
         :: SCC energy               -27.500874861227 Eh    ::
         :: -> dispersion             -0.011751179409 Eh    ::
         :: -> Gsolv                  -0.097337221821 Eh    ::
         :: repulsion energy           0.346005667946 Eh    ::

    * Orbital Energies and Occupations

         #    Occupation            Energy/Eh            Energy/eV
      -------------------------------------------------------------
         1        2.0000           -0.6735543             -18.3283
       ...           ...                  ...                  ...
        12        2.0000           -0.4981314             -13.5548
        13        2.0000           -0.4860398             -13.2258
        14        2.0000           -0.4779313             -13.0052
        15        2.0000           -0.4731758             -12.8758
        16        2.0000           -0.4518417             -12.2952
        17        2.0000           -0.4507913             -12.2667
        18        2.0000           -0.4340886             -11.8122
        19        2.0000           -0.4221287             -11.4867
        20        2.0000           -0.4034538             -10.9785
        21        2.0000           -0.3853951             -10.4871
        22        2.0000           -0.3739186             -10.1748
        23        2.0000           -0.3707871             -10.0896
        24        1.4913           -0.3002209              -8.1694 (HOMO)
        25        0.5087           -0.2981771              -8.1138 (LUMO)
        26                         -0.2098973              -5.7116
        27                         -0.1689719              -4.5980
        28                         -0.0727640              -1.9800
        29                          0.1062271               2.8906
        30                          0.1304859               3.5507
        31                          0.1510328               4.1098
        32                          0.1629923               4.4352
        33                          0.1802379               4.9045
        34                          0.2051133               5.5814
        35                          0.2800286               7.6200
       ...                                ...                  ...
        42                          0.7288560              19.8332
      -------------------------------------------------------------
                  HL-Gap            0.0020438 Eh            0.0556 eV

     #   Z          covCN         q      C6AA      α(0)
     1   6 C        2.903    -0.075    29.883     8.963
     2   6 C        2.910    -0.047    29.161     8.855
     3   1 H        0.925     0.026     2.638     2.540
     4   8 O        0.857    -0.586    25.769     6.806
     5   6 C        2.882     0.103    25.727     8.315
     6   1 H        0.925     0.026     2.648     2.545
     7   6 C        2.909    -0.047    29.178     8.857
     8   7 N        0.923    -0.536    34.322     8.465
     9   6 C        2.903    -0.074    29.848     8.958
    10   1 H        0.925     0.027     2.628     2.535
    11   6 C        2.834     0.194    23.870     8.006
    12   1 H        0.925     0.034     2.532     2.488
    13   8 O        1.607    -0.703    27.785     7.114
    14   1 H        0.802     0.308     0.698     1.313
    15   1 H        0.805     0.350     0.587     1.204

Wiberg/Mayer (AO) data.
largest (>0.10) Wiberg bond orders for each atom

     #   Z sym  total        # sym  WBO       # sym  WBO       # sym  WBO
 ---------------------------------------------------------------------------
     1   6 C    3.956 --     2 C    1.678    11 C    1.155    12 H    0.963
     2   6 C    3.835 --     1 C    1.678     5 C    1.085     6 H    0.969
     3   1 H    0.995 --     9 C    0.965
     4   8 O    1.733 --    11 C    1.464
     5   6 C    3.960 --     8 N    1.733     7 C    1.086     2 C    1.085
     6   1 H    0.998 --     2 C    0.969
     7   6 C    3.833 --     9 C    1.677     5 C    1.086    10 H    0.969
     8   7 N    1.873 --     5 C    1.733
     9   6 C    3.955 --     7 C    1.677    11 C    1.155     3 H    0.965
    10   1 H    0.998 --     7 C    0.969
    11   6 C    3.839 --     4 O    1.464     1 C    1.155     9 C    1.155
    12   1 H    0.994 --     1 C    0.963
    13   8 O    1.753 --    15 H    0.877    14 H    0.845
    14   1 H    0.905 --    13 O    0.845
    15   1 H    0.877 --    13 O    0.877
 ---------------------------------------------------------------------------

molecular dipole:
                 x           y           z       tot (Debye)
 q only:        5.386      -0.116       0.000
   full:        5.596       0.233       0.000      14.236

 projected vibrational frequencies (cm⁻¹)
eigval :       -0.00    -0.00    -0.00     0.00     0.00     0.00
eigval :     -186.63    32.32    51.69    89.40   182.54   254.34
eigval :      305.39   377.37   420.27   440.55   466.55   471.97
eigval :      603.61   658.04   695.45   744.34   774.43   818.73
eigval :      835.01   906.26   913.81   945.60  1072.92  1170.51
eigval :     1201.98  1252.29  1324.69  1367.22  1496.00  1511.05
eigval :     1517.16  1523.03  1614.37  3033.65  3043.32  3056.16
eigval :     3063.46  3142.60  3597.10

   temp. (K)  partition function   enthalpy   heat capacity  entropy
                                   cal/mol     cal/K/mol   cal/K/mol   J/K/mol
 298.15  VIB   721.                 3969.264     25.110     24.296
         ROT  0.563E+06              888.752      2.981     29.293
         INT  0.406E+09             4858.017     28.091     53.589
         TR   0.134E+28             1481.254      4.968     40.344
         TOT                        6339.2705    33.0594    93.9328   393.0149

       T/K    H(0)-H(T)+PV         H(T)/Eh          T*S/Eh         G(T)/Eh
   ------------------------------------------------------------------------
    298.15    0.101023E-01    0.112563E+00    0.446305E-01    0.679328E-01
   ------------------------------------------------------------------------

         :::::::::::::::::::::::::::::::::::::::::::::::::::::
         ::                  THERMODYNAMIC                  ::
         :::::::::::::::::::::::::::::::::::::::::::::::::::::
         :: total free energy         -27.086936366801 Eh   ::
         ::.................................................::
         :: total energy              -27.154869192890 Eh   ::
         :: zero point energy           0.102461062111 Eh   ::
         :: G(RRHO) w/o ZPVE           -0.034528236023 Eh   ::
         :: G(RRHO) contrib.            0.067932826089 Eh   ::
         :::::::::::::::::::::::::::::::::::::::::::::::::::::

           -------------------------------------------------
          | TOTAL ENERGY              -27.154869192890 Eh   |
          | TOTAL ENTHALPY            -27.042305860179 Eh   |
          | TOTAL FREE ENERGY         -27.086936366801 Eh   |
          | GRADIENT NORM               0.000767561211 Eh/α |
          | HOMO-LUMO GAP               0.055613342362 eV   |
           -------------------------------------------------

 * finished run on 2025/10/17 at 02:03:24.932
normal termination of xtb
