   * xtb version 6.7.1 (edcfbbe) compiled by 'albert@albert-system' on 2024-07-22

   ID    Z sym.   atoms
    1    6 C      1, 2, 5, 7, 9, 11
    2    1 H      3, 6, 10, 12, 14, 15
    3    8 O      4, 13
    4    7 N      8

          program call               : xtb tb_lite_results_shiftn0p1_gp236_b0_rot180_complex.xyz --ohess --chrg -1 --alpb water
      * Solvation model:               ALPB
        Solvent                        water
        Solvent mass                       1.8000E+01 g/mol
          :  Hamiltonian                  GFN2-xTB          :
 * total energy  :   -27.0554201 Eh     change       -0.2205880E-10 Eh
 * total energy  :   -27.1232812 Eh     change       -0.6786118E-01 Eh
 * total energy  :   -26.8574730 Eh     change        0.2658082E+00 Eh
 * total energy  :   -27.1486613 Eh     change       -0.2911882E+00 Eh
 * total energy  :   -27.1535537 Eh     change       -0.4892382E-02 Eh
 * total energy  :   -27.1545730 Eh     change       -0.1019297E-02 Eh
 * total energy  :   -27.1547669 Eh     change       -0.1939290E-03 Eh
 * total energy  :   -27.1548242 Eh     change       -0.5730030E-04 Eh
 * total energy  :   -27.1548517 Eh     change       -0.2755563E-04 Eh
 * total energy  :   -27.1548592 Eh     change       -0.7441291E-05 Eh
 * total energy  :   -27.1548626 Eh     change       -0.3383179E-05 Eh
   *** GEOMETRY OPTIMIZATION CONVERGED AFTER 11 ITERATIONS ***

 final structure:
================
15
 xtb: 6.7.1 (edcfbbe)
C           -3.60324839678342        0.77830967794271       -0.00000965565138
C           -3.67106477628647       -0.56987382294296       -0.00001488962625
H           -0.21515068096512        1.18589028904775       -0.00005825557596
O           -2.30131315524437        2.74787008495213       -0.00002206143569
C           -2.48393992207890       -1.41323514165250       -0.00004215717755
H           -4.62513085325650       -1.07924710489969        0.00000828962287
C           -1.22453822496935       -0.68123016913743       -0.00004766255381
N           -2.54211040289538       -2.68534590903842       -0.00001777789961
C           -1.16615111660795        0.66768997841165       -0.00004324005316
H           -0.32118694355794       -1.27588521270597       -0.00007377702436
C           -2.35021861627041        1.48225733160590       -0.00002546305144
H           -4.50112895059240        1.38372751949156        0.00000526086374
O            0.09384043846773        4.07436163177510       -0.00002002068247
H           -0.76210808532054        3.59264775485160       -0.00002094393516
H           -0.14128947882287        5.00819955368297       -0.00001702591521

          :  Hamiltonian                  GFN2-xTB          :
         :: gradient norm              0.000727419147 Eh/a0 ::
         :: HOMO-LUMO gap              0.055693768558 eV    ::
         :: SCC energy               -27.500975740648 Eh    ::
         :: -> dispersion             -0.011710959497 Eh    ::
         :: -> Gsolv                  -0.097210889634 Eh    ::
         :: repulsion energy           0.346113168342 Eh    ::

    * Orbital Energies and Occupations

         #    Occupation            Energy/Eh            Energy/eV
      -------------------------------------------------------------
         1        2.0000           -0.6735872             -18.3292
       ...           ...                  ...                  ...
        12        2.0000           -0.4982409             -13.5578
        13        2.0000           -0.4860872             -13.2271
        14        2.0000           -0.4781353             -13.0107
        15        2.0000           -0.4735135             -12.8850
        16        2.0000           -0.4519320             -12.2977
        17        2.0000           -0.4509001             -12.2696
        18        2.0000           -0.4342727             -11.8172
        19        2.0000           -0.4221566             -11.4875
        20        2.0000           -0.4036122             -10.9828
        21        2.0000           -0.3854744             -10.4893
        22        2.0000           -0.3739491             -10.1757
        23        2.0000           -0.3708473             -10.0913
        24        1.4919           -0.3002721              -8.1708 (HOMO)
        25        0.5081           -0.2982255              -8.1151 (LUMO)
        26                         -0.2100643              -5.7161
        27                         -0.1690443              -4.5999
        28                         -0.0728985              -1.9837
        29                          0.1073730               2.9218
        30                          0.1306573               3.5554
        31                          0.1511205               4.1122
        32                          0.1603200               4.3625
        33                          0.1801923               4.9033
        34                          0.2045903               5.5672
        35                          0.2795910               7.6081
       ...                                ...                  ...
        42                          0.7290084              19.8373
      -------------------------------------------------------------
                  HL-Gap            0.0020466 Eh            0.0557 eV

     #   Z          covCN         q      C6AA      α(0)
     1   6 C        2.903    -0.074    29.849     8.958
     2   6 C        2.909    -0.047    29.177     8.857
     3   1 H        0.925     0.032     2.556     2.500
     4   8 O        0.857    -0.585    25.763     6.805
     5   6 C        2.882     0.103    25.727     8.315
     6   1 H        0.925     0.027     2.628     2.535
     7   6 C        2.910    -0.047    29.162     8.855
     8   7 N        0.923    -0.536    34.325     8.466
     9   6 C        2.903    -0.075    29.877     8.962
    10   1 H        0.925     0.026     2.647     2.544
    11   6 C        2.834     0.194    23.870     8.006
    12   1 H        0.925     0.026     2.637     2.539
    13   8 O        1.608    -0.702    27.763     7.111
    14   1 H        0.803     0.308     0.698     1.313
    15   1 H        0.805     0.351     0.586     1.202

Wiberg/Mayer (AO) data.
largest (>0.10) Wiberg bond orders for each atom

     #   Z sym  total        # sym  WBO       # sym  WBO       # sym  WBO
 ---------------------------------------------------------------------------
     1   6 C    3.955 --     2 C    1.678    11 C    1.155    12 H    0.965
     2   6 C    3.834 --     1 C    1.678     5 C    1.086     6 H    0.969
     3   1 H    0.994 --     9 C    0.964
     4   8 O    1.732 --    11 C    1.465
     5   6 C    3.960 --     8 N    1.734     2 C    1.086     7 C    1.085
     6   1 H    0.998 --     2 C    0.969
     7   6 C    3.835 --     9 C    1.679     5 C    1.085    10 H    0.969
     8   7 N    1.873 --     5 C    1.734
     9   6 C    3.956 --     7 C    1.679    11 C    1.155     3 H    0.964
    10   1 H    0.998 --     7 C    0.969
    11   6 C    3.839 --     4 O    1.465     9 C    1.155     1 C    1.155
    12   1 H    0.995 --     1 C    0.965
    13   8 O    1.754 --    15 H    0.877    14 H    0.847
    14   1 H    0.905 --    13 O    0.847
    15   1 H    0.877 --    13 O    0.877
 ---------------------------------------------------------------------------

molecular dipole:
                 x           y           z       tot (Debye)
 q only:        3.732      -0.116       0.000
   full:        3.551       0.237       0.000       9.046

 projected vibrational frequencies (cm⁻¹)
eigval :       -0.00    -0.00    -0.00     0.00     0.00     0.00
eigval :     -157.96    31.03    45.87    89.33   179.57   254.44
eigval :      305.40   378.32   424.71   441.22   468.26   471.41
eigval :      603.42   654.46   695.55   743.84   774.44   818.26
eigval :      835.11   906.76   913.12   945.26  1072.44  1169.55
eigval :     1201.93  1251.32  1324.42  1366.85  1496.57  1511.16
eigval :     1520.32  1524.53  1614.21  3034.42  3040.84  3056.01
eigval :     3063.11  3157.83  3598.60

   temp. (K)  partition function   enthalpy   heat capacity  entropy
                                   cal/mol     cal/K/mol   cal/K/mol   J/K/mol
 298.15  VIB   837.                 3978.975     24.973     24.342
         ROT  0.566E+06              888.752      2.981     29.304
         INT  0.474E+09             4867.727     27.954     53.646
         TR   0.134E+28             1481.254      4.968     40.344
         TOT                        6348.9814    32.9221    93.9898   393.2533

       T/K    H(0)-H(T)+PV         H(T)/Eh          T*S/Eh         G(T)/Eh
   ------------------------------------------------------------------------
    298.15    0.101177E-01    0.112599E+00    0.446576E-01    0.679410E-01
   ------------------------------------------------------------------------

         :::::::::::::::::::::::::::::::::::::::::::::::::::::
         ::                  THERMODYNAMIC                  ::
         :::::::::::::::::::::::::::::::::::::::::::::::::::::
         :: total free energy         -27.086921612653 Eh   ::
         ::.................................................::
         :: total energy              -27.154862570760 Eh   ::
         :: zero point energy           0.102480792127 Eh   ::
         :: G(RRHO) w/o ZPVE           -0.034539834020 Eh   ::
         :: G(RRHO) contrib.            0.067940958107 Eh   ::
         :::::::::::::::::::::::::::::::::::::::::::::::::::::

           -------------------------------------------------
          | TOTAL ENERGY              -27.154862570760 Eh   |
          | TOTAL ENTHALPY            -27.042264032729 Eh   |
          | TOTAL FREE ENERGY         -27.086921612653 Eh   |
          | GRADIENT NORM               0.000726940480 Eh/α |
          | HOMO-LUMO GAP               0.055690995803 eV   |
           -------------------------------------------------

 * finished run on 2025/10/17 at 02:03:22.512
normal termination of xtb
