   * xtb version 6.7.1 (edcfbbe) compiled by 'albert@albert-system' on 2024-07-22

   ID    Z sym.   atoms
    1    6 C      1, 2, 5, 7, 9, 11
    2    1 H      3, 6, 10, 12, 14, 15
    3    8 O      4, 13
    4    7 N      8

          program call               : xtb tb_lite_results_shiftn0p15_gp236_b0_rot180_complex.xyz --ohess --chrg -1 --alpb water
      * Solvation model:               ALPB
        Solvent                        water
        Solvent mass                       1.8000E+01 g/mol
          :  Hamiltonian                  GFN2-xTB          :
 * total energy  :   -27.0550877 Eh     change       -0.1209663E-09 Eh
 * total energy  :   -27.1231734 Eh     change       -0.6808572E-01 Eh
 * total energy  :   -26.8616326 Eh     change        0.2615408E+00 Eh
 * total energy  :   -27.1486545 Eh     change       -0.2870219E+00 Eh
 * total energy  :   -27.1535281 Eh     change       -0.4873587E-02 Eh
 * total energy  :   -27.1545612 Eh     change       -0.1033167E-02 Eh
 * total energy  :   -27.1547696 Eh     change       -0.2083505E-03 Eh
 * total energy  :   -27.1548334 Eh     change       -0.6379953E-04 Eh
 * total energy  :   -27.1548518 Eh     change       -0.1844076E-04 Eh
 * total energy  :   -27.1548619 Eh     change       -0.1006107E-04 Eh
 * total energy  :   -27.1548648 Eh     change       -0.2928021E-05 Eh
   *** GEOMETRY OPTIMIZATION CONVERGED AFTER 11 ITERATIONS ***

 final structure:
================
15
 xtb: 6.7.1 (edcfbbe)
C           -3.61203885466340        0.76942728557494       -0.00002011657297
C           -3.67564939223410       -0.57893778361877       -0.00002101345391
H           -0.22511635294365        1.18761413447417       -0.00004979159070
O           -2.31635568028060        2.74312315515331       -0.00002534356644
C           -2.48578863436035       -1.41864985030241       -0.00003303490971
H           -4.62805620634186       -1.09150429792645        0.00002422945081
C           -1.22859919574861       -0.68259412046071       -0.00003793558829
N           -2.53984473748267       -2.69101202339544       -0.00002812949610
C           -1.17453271815344        0.66647600648432       -0.00003527193587
H           -0.32342268001535       -1.27456636309472       -0.00008423106296
C           -2.36121142186379        1.47730690553385       -0.00002653653219
H           -4.51185531838758        1.37198927456731       -0.00000591415240
O            0.07597765612171        4.07172762139381       -0.00002047097849
H           -0.77939497286969        3.58881492957017       -0.00002365657471
H           -0.16057449256494        5.00516623313452       -0.00001216313152

          :  Hamiltonian                  GFN2-xTB          :
         :: gradient norm              0.000555873859 Eh/a0 ::
         :: HOMO-LUMO gap              0.055696426264 eV    ::
         :: SCC energy               -27.500894088003 Eh    ::
         :: -> dispersion             -0.011712977376 Eh    ::
         :: -> Gsolv                  -0.097200014759 Eh    ::
         :: repulsion energy           0.346029259323 Eh    ::

    * Orbital Energies and Occupations

         #    Occupation            Energy/Eh            Energy/eV
      -------------------------------------------------------------
         1        2.0000           -0.6736104             -18.3299
       ...           ...                  ...                  ...
        12        2.0000           -0.4982543             -13.5582
        13        2.0000           -0.4860601             -13.2264
        14        2.0000           -0.4781293             -13.0106
        15        2.0000           -0.4735139             -12.8850
        16        2.0000           -0.4519258             -12.2975
        17        2.0000           -0.4509116             -12.2699
        18        2.0000           -0.4342634             -11.8169
        19        2.0000           -0.4221137             -11.4863
        20        2.0000           -0.4036238             -10.9832
        21        2.0000           -0.3854890             -10.4897
        22        2.0000           -0.3739726             -10.1763
        23        2.0000           -0.3708615             -10.0917
        24        1.4919           -0.3002872              -8.1712 (HOMO)
        25        0.5081           -0.2982406              -8.1155 (LUMO)
        26                         -0.2100642              -5.7161
        27                         -0.1690868              -4.6011
        28                         -0.0729421              -1.9849
        29                          0.1073446               2.9210
        30                          0.1306260               3.5545
        31                          0.1510643               4.1107
        32                          0.1603806               4.3642
        33                          0.1800491               4.8994
        34                          0.2045200               5.5653
        35                          0.2796549               7.6098
       ...                                ...                  ...
        42                          0.7288723              19.8336
      -------------------------------------------------------------
                  HL-Gap            0.0020466 Eh            0.0557 eV

     #   Z          covCN         q      C6AA      α(0)
     1   6 C        2.903    -0.074    29.848     8.958
     2   6 C        2.909    -0.047    29.177     8.857
     3   1 H        0.925     0.032     2.555     2.500
     4   8 O        0.857    -0.585    25.762     6.805
     5   6 C        2.882     0.103    25.728     8.316
     6   1 H        0.925     0.027     2.628     2.535
     7   6 C        2.909    -0.047    29.162     8.855
     8   7 N        0.923    -0.536    34.324     8.466
     9   6 C        2.903    -0.075    29.877     8.962
    10   1 H        0.925     0.026     2.647     2.544
    11   6 C        2.834     0.194    23.870     8.006
    12   1 H        0.925     0.027     2.636     2.539
    13   8 O        1.608    -0.702    27.767     7.112
    14   1 H        0.803     0.308     0.698     1.313
    15   1 H        0.805     0.351     0.586     1.203

Wiberg/Mayer (AO) data.
largest (>0.10) Wiberg bond orders for each atom

     #   Z sym  total        # sym  WBO       # sym  WBO       # sym  WBO
 ---------------------------------------------------------------------------
     1   6 C    3.955 --     2 C    1.678    11 C    1.155    12 H    0.965
     2   6 C    3.834 --     1 C    1.678     5 C    1.086     6 H    0.969
     3   1 H    0.994 --     9 C    0.964
     4   8 O    1.733 --    11 C    1.465
     5   6 C    3.960 --     8 N    1.734     2 C    1.086     7 C    1.085
     6   1 H    0.998 --     2 C    0.969
     7   6 C    3.835 --     9 C    1.679     5 C    1.085    10 H    0.969
     8   7 N    1.873 --     5 C    1.734
     9   6 C    3.956 --     7 C    1.679    11 C    1.155     3 H    0.964
    10   1 H    0.998 --     7 C    0.969
    11   6 C    3.839 --     4 O    1.465     9 C    1.155     1 C    1.155
    12   1 H    0.995 --     1 C    0.965
    13   8 O    1.753 --    15 H    0.877    14 H    0.847
    14   1 H    0.905 --    13 O    0.847
    15   1 H    0.877 --    13 O    0.877
 ---------------------------------------------------------------------------

molecular dipole:
                 x           y           z       tot (Debye)
 q only:        3.744      -0.109       0.000
   full:        3.562       0.244       0.000       9.075

 projected vibrational frequencies (cm⁻¹)
eigval :       -0.00    -0.00    -0.00     0.00     0.00     0.00
eigval :     -156.46    37.81    46.61    88.39   180.37   256.67
eigval :      305.51   378.82   426.22   441.49   469.17   472.46
eigval :      603.42   655.20   696.44   745.07   774.31   818.76
eigval :      834.97   906.57   912.31   945.19  1072.35  1169.49
eigval :     1201.81  1251.28  1324.46  1366.71  1496.34  1510.81
eigval :     1520.34  1524.57  1614.14  3034.19  3040.62  3055.48
eigval :     3062.65  3156.08  3599.09

   temp. (K)  partition function   enthalpy   heat capacity  entropy
                                   cal/mol     cal/K/mol   cal/K/mol   J/K/mol
 298.15  VIB   687.                 3964.235     25.083     24.278
         ROT  0.566E+06              888.752      2.981     29.303
         INT  0.389E+09             4852.988     28.064     53.581
         TR   0.134E+28             1481.254      4.968     40.344
         TOT                        6334.2416    33.0321    93.9246   392.9807

       T/K    H(0)-H(T)+PV         H(T)/Eh          T*S/Eh         G(T)/Eh
   ------------------------------------------------------------------------
    298.15    0.100943E-01    0.112603E+00    0.446266E-01    0.679764E-01
   ------------------------------------------------------------------------

         :::::::::::::::::::::::::::::::::::::::::::::::::::::
         ::                  THERMODYNAMIC                  ::
         :::::::::::::::::::::::::::::::::::::::::::::::::::::
         :: total free energy         -27.086888424453 Eh   ::
         ::.................................................::
         :: total energy              -27.154864827311 Eh   ::
         :: zero point energy           0.102508774741 Eh   ::
         :: G(RRHO) w/o ZPVE           -0.034532371883 Eh   ::
         :: G(RRHO) contrib.            0.067976402858 Eh   ::
         :::::::::::::::::::::::::::::::::::::::::::::::::::::

           -------------------------------------------------
          | TOTAL ENERGY              -27.154864827311 Eh   |
          | TOTAL ENTHALPY            -27.042261795980 Eh   |
          | TOTAL FREE ENERGY         -27.086888424453 Eh   |
          | GRADIENT NORM               0.000554809868 Eh/α |
          | HOMO-LUMO GAP               0.055690951156 eV   |
           -------------------------------------------------

 * finished run on 2025/10/17 at 02:03:27.295
normal termination of xtb
