                         Program Version 5.0.4 -  RELEASE  -
|  1> !PBE D3BJ def2-TZVP CPCM(water)
|  2>
|  3> *xyz -1 1
|  4> N     -8.476226   -3.302078   -1.769582
|  5> C     -7.608030   -2.537879   -1.811388
|  6> N     -6.707974   -1.790520   -1.831248
|  7> H     -5.932872   -2.193687   -1.300738
|  8> *
|  9>
| 10>                          ****END OF INPUT****

CARTESIAN COORDINATES (ANGSTROEM)
---------------------------------
  N     -8.476226   -3.302078   -1.769582
  C     -7.608030   -2.537879   -1.811388
  N     -6.707974   -1.790520   -1.831248
  H     -5.932872   -2.193687   -1.300738

 Total Charge           Charge          ....   -1
 Multiplicity           Mult            ....    1
 Number of Electrons    NEL             ....   22
 Basis Dimension        Dim             ....   99

ORBITAL ENERGIES
----------------

  NO   OCC          E(Eh)            E(eV)
   0   2.0000     -13.908288      -378.4638
   1   2.0000     -13.880858      -377.7173
   2   2.0000      -9.860025      -268.3049
   3   2.0000      -0.824509       -22.4360
   4   2.0000      -0.734066       -19.9749
   5   2.0000      -0.447771       -12.1845
   6   2.0000      -0.314457        -8.5568
   7   2.0000      -0.312349        -8.4995
   8   2.0000      -0.265343        -7.2204
   9   2.0000      -0.187661        -5.1065
  10   2.0000      -0.150135        -4.0854
  11   0.0000       0.036437         0.9915
  12   0.0000       0.093846         2.5537
  13   0.0000       0.123934         3.3724
  14   0.0000       0.142824         3.8864
  15   0.0000       0.165308         4.4983

MULLIKEN ATOMIC CHARGES
-----------------------
   0 N :   -0.385523
   1 C :   -0.443598
   2 N :   -0.424050
   3 H :    0.253172
Sum of atomic charges:   -1.0000000

LOEWDIN ATOMIC CHARGES
----------------------
   0 N :   -0.302422
   1 C :   -0.675981
   2 N :   -0.205446
   3 H :    0.183849

  Mayer bond orders larger than 0.100000
B(  0-N ,  1-C ) :   2.9431 B(  0-N ,  2-N ) :   0.1769 B(  1-C ,  2-N ) :   1.8818
B(  2-N ,  3-H ) :   0.8867

Dispersion correction           -0.001781059
FINAL SINGLE POINT ENERGY      -148.191674952699

DIPOLE MOMENT
-------------
                                X             Y             Z
Electronic contribution:     -0.23976      -0.01655      -0.08995
Nuclear contribution   :      1.52239       0.32025       0.46018
                        -----------------------------------------
Total Dipole Moment    :      1.28263       0.30370       0.37023
                        -----------------------------------------
Magnitude (a.u.)       :      1.36910
Magnitude (Debye)      :      3.47998

Rotational constants in cm-1:    18.853825     0.420101     0.410944
Rotational constants in MHz : 565223.454044 12594.309816 12319.800014

                             ****ORCA TERMINATED NORMALLY****
TOTAL RUN TIME: 0 days 0 hours 0 minutes 12 seconds 98 msec
