   * xtb version 6.7.1 (edcfbbe) compiled by 'albert@albert-system' on 2024-07-22

   ID    Z sym.   atoms
    1    6 C      1-5, 7, 9
    2    1 H      6, 8, 11-15
    3    8 O      10

          program call               : xtb xyz.xyz --charge -1 --ohess
          :  Hamiltonian                  GFN2-xTB          :
 * total energy  :   -22.7887556 Eh     change       -0.4119478E-09 Eh
 * total energy  :   -22.8121532 Eh     change       -0.2339755E-01 Eh
 * total energy  :   -22.8142242 Eh     change       -0.2071068E-02 Eh
 * total energy  :   -22.8143547 Eh     change       -0.1304802E-03 Eh
 * total energy  :   -22.8143720 Eh     change       -0.1729517E-04 Eh
 * total energy  :   -22.8143754 Eh     change       -0.3377854E-05 Eh
   *** GEOMETRY OPTIMIZATION CONVERGED AFTER 6 ITERATIONS ***

 final structure:
================
15
 xtb: 6.7.1 (edcfbbe)
C           -5.17753022369058       -6.29792185620372        2.94308641563066
C           -4.98905776605780       -5.04292558786185        3.51365389458369
C           -6.10417250589355       -7.31680097954435        3.55211086077668
C           -4.46976537063907       -6.58030618137219        1.77602116588016
C           -4.14415130557517       -4.11412619108736        2.95863325659859
H           -5.52975944504152       -4.79427591074870        4.42650487446501
C           -3.40124957684492       -4.36607865135641        1.76187276080039
H           -4.02202328612326       -3.14492613820095        3.43204420108651
C           -3.62085175043330       -5.66708297860768        1.20507595674132
O           -2.62206517429376       -3.51986702856109        1.24431231103045
H           -4.60025994708989       -7.55621804087668        1.30969720180026
H           -6.57533823961476       -6.91954060897440        4.45162115120754
H           -6.89573946081392       -7.60221849473023        2.85254366813256
H           -5.56632850448889       -8.22957147891535        3.82630302869084
H           -3.08544544339962       -5.92175687295903        0.29569625257535

          :  Hamiltonian                  GFN2-xTB          :
         :: gradient norm              0.000926679999 Eh/a0 ::
         :: HOMO-LUMO gap              3.206844431452 eV    ::
         :: SCC energy               -23.165205710434 Eh    ::
         :: -> dispersion             -0.012491467761 Eh    ::
         :: repulsion energy           0.350830317513 Eh    ::

    * Orbital Energies and Occupations

         #    Occupation            Energy/Eh            Energy/eV
      -------------------------------------------------------------
         1        2.0000           -0.4656818             -12.6718
       ...           ...                  ...                  ...
         9        2.0000           -0.3435030              -9.3472
        10        2.0000           -0.3412570              -9.2861
        11        2.0000           -0.3178213              -8.6484
        12        2.0000           -0.2991588              -8.1405
        13        2.0000           -0.2942649              -8.0074
        14        2.0000           -0.2886364              -7.8542
        15        2.0000           -0.2824040              -7.6846
        16        2.0000           -0.2461428              -6.6979
        17        2.0000           -0.2454461              -6.6789
        18        2.0000           -0.2450487              -6.6681
        19        2.0000           -0.2132534              -5.8029
        20        2.0000           -0.1529898              -4.1631
        21        2.0000           -0.1459925              -3.9727 (HOMO)
        22                         -0.0281431              -0.7658 (LUMO)
        23                         -0.0039976              -0.1088
        24                          0.1091905               2.9712
        25                          0.2599474               7.0735
        26                          0.2789509               7.5906
        27                          0.3025250               8.2321
        28                          0.3209349               8.7331
        29                          0.3439599               9.3596
        30                          0.3454590               9.4004
        31                          0.3524073               9.5895
        32                          0.3944823              10.7344
       ...                                ...                  ...
        39                          0.8745248              23.7970
      -------------------------------------------------------------
                  HL-Gap            0.1178494 Eh            3.2068 eV

     #   Z          covCN         q      C6AA      α(0)
     1   6 C        2.964    -0.053    29.321     8.882
     2   6 C        2.917    -0.055    29.360     8.885
     3   6 C        3.754    -0.080    22.087     6.701
     4   6 C        2.918    -0.055    29.375     8.888
     5   6 C        2.916    -0.101    30.551     9.064
     6   1 H        0.925    -0.038     3.801     3.049
     7   6 C        2.829     0.180    24.146     8.052
     8   1 H        0.925    -0.023     3.481     2.918
     9   6 C        2.916    -0.100    30.517     9.059
    10   8 O        0.857    -0.615    26.497     6.901
    11   1 H        0.925    -0.037     3.777     3.039
    12   1 H        0.924     0.002     3.025     2.720
    13   1 H        0.924    -0.001     3.080     2.745
    14   1 H        0.924    -0.001     3.082     2.745
    15   1 H        0.925    -0.022     3.475     2.915

Wiberg/Mayer (AO) data.
largest (>0.10) Wiberg bond orders for each atom

     #   Z sym  total        # sym  WBO       # sym  WBO       # sym  WBO
 ---------------------------------------------------------------------------
     1   6 C    3.962 --     2 C    1.374     4 C    1.364     3 C    1.009
     2   6 C    3.985 --     5 C    1.510     1 C    1.374     6 H    0.966
     3   6 C    3.993 --     1 C    1.009    12 H    0.988    13 H    0.981
                            14 H    0.981
     4   6 C    3.985 --     9 C    1.520     1 C    1.364    11 H    0.968
     5   6 C    3.975 --     2 C    1.510     7 C    1.208     8 H    0.972
                            10 O    0.106
     6   1 H    0.999 --     2 C    0.966
     7   6 C    3.972 --    10 O    1.465     5 C    1.208     9 C    1.203
     8   1 H    0.999 --     5 C    0.972
     9   6 C    3.976 --     4 C    1.520     7 C    1.203    15 H    0.972
                            10 O    0.104
    10   8 O    1.782 --     7 C    1.465     5 C    0.106     9 C    0.104
    11   1 H    0.999 --     4 C    0.968
    12   1 H    1.000 --     3 C    0.988
    13   1 H    0.998 --     3 C    0.981
    14   1 H    0.998 --     3 C    0.981
    15   1 H    0.999 --     9 C    0.972
 ---------------------------------------------------------------------------

molecular dipole:
                 x           y           z       tot (Debye)
 q only:        6.819       8.680      -3.590
   full:        6.557       8.388      -3.420      28.422

 projected vibrational frequencies (cm⁻¹)
eigval :       -0.00    -0.00    -0.00    -0.00     0.00     0.00
eigval :       -8.27   127.33   299.21   304.39   373.37   440.31
eigval :      444.17   466.18   615.54   652.16   759.80   775.52
eigval :      833.95   863.25   892.16   904.36   989.22   997.13
eigval :     1033.46  1124.12  1199.25  1234.70  1239.98  1320.34
eigval :     1399.83  1416.41  1454.81  1504.34  1506.16  1528.87
eigval :     1567.88  1635.14  2919.35  2939.04  2944.09  2953.73
eigval :     2993.93  3006.24  3014.24

   temp. (K)  partition function   enthalpy   heat capacity  entropy
                                   cal/mol     cal/K/mol   cal/K/mol   J/K/mol
 298.15  VIB   210.                 2824.773     20.027     17.026
         ROT  0.272E+06              888.752      2.981     27.850
         INT  0.571E+08             3713.525     23.008     44.877
         TR   0.107E+28             1481.254      4.968     39.905
         TOT                        5194.7790    27.9765    84.7819   354.7275

       T/K    H(0)-H(T)+PV         H(T)/Eh          T*S/Eh         G(T)/Eh
   ------------------------------------------------------------------------
    298.15    0.827841E-02    0.123741E+00    0.402826E-01    0.834584E-01
   ------------------------------------------------------------------------

         :::::::::::::::::::::::::::::::::::::::::::::::::::::
         ::                  THERMODYNAMIC                  ::
         :::::::::::::::::::::::::::::::::::::::::::::::::::::
         :: total free energy         -22.730916999557 Eh   ::
         ::.................................................::
         :: total energy              -22.814375392922 Eh   ::
         :: zero point energy           0.115462609929 Eh   ::
         :: G(RRHO) w/o ZPVE           -0.032004216564 Eh   ::
         :: G(RRHO) contrib.            0.083458393365 Eh   ::
         :::::::::::::::::::::::::::::::::::::::::::::::::::::

           -------------------------------------------------
          | TOTAL ENERGY              -22.814375392922 Eh   |
          | TOTAL ENTHALPY            -22.690634375793 Eh   |
          | TOTAL FREE ENERGY         -22.730916999557 Eh   |
          | GRADIENT NORM               0.000926618947 Eh/α |
          | HOMO-LUMO GAP               3.206844213556 eV   |
           -------------------------------------------------

 * finished run on 2025/10/18 at 02:51:33.700
