   * xtb version 6.7.1 (edcfbbe) compiled by 'albert@albert-system' on 2024-07-22

   ID    Z sym.   atoms
    1    6 C      1, 2, 5, 7, 9, 11
    2    8 O      3, 6
    3    1 H      4, 8, 10, 12, 13

          program call               : xtb xyz.xyz --charge -1 --ohess
          :  Hamiltonian                  GFN2-xTB          :
 * total energy  :   -23.7149417 Eh     change       -0.2001315E-09 Eh
 * total energy  :   -23.7178840 Eh     change       -0.2942339E-02 Eh
 * total energy  :   -23.7184674 Eh     change       -0.5833732E-03 Eh
 * total energy  :   -23.7184849 Eh     change       -0.1753955E-04 Eh
 * total energy  :   -23.7184887 Eh     change       -0.3762202E-05 Eh
   *** GEOMETRY OPTIMIZATION CONVERGED AFTER 5 ITERATIONS ***

 final structure:
================
13
 xtb: 6.7.1 (edcfbbe)
C           -6.31985689046492       -3.53832929792317        2.05616081166119
C           -5.98876659776038       -4.01616945432978        0.74752407083123
O           -9.40884790242363       -5.33826964841526        2.93359604135591
H           -7.64182539426833       -3.58400375110860        3.74379465498130
C           -6.90841500854334       -4.98198963547574        0.23022889202142
O           -4.97631026224292       -3.62110754269904        0.10703393961255
C           -8.01066877623996       -5.40755115830468        0.93574655182389
H           -9.86136874236297       -5.98040078441766        2.37685852480156
C           -8.28213837116046       -4.90950170054417        2.20113401242872
H           -8.68530848747393       -6.14703568335192        0.50017997801200
C           -7.42351675559996       -3.96947027763519        2.75345849431626
H           -5.65974680855048       -2.80315043998486        2.50338869661498
H           -6.71680900290873       -5.38601762580991       -0.75795766846100

          :  Hamiltonian                  GFN2-xTB          :
         :: gradient norm              0.000732691727 Eh/a0 ::
         :: HOMO-LUMO gap              2.992050358321 eV    ::
         :: SCC energy               -24.028797276019 Eh    ::
         :: -> dispersion             -0.010773659974 Eh    ::
         :: repulsion energy           0.310308586335 Eh    ::

    * Orbital Energies and Occupations

         #    Occupation            Energy/Eh            Energy/eV
      -------------------------------------------------------------
         1        2.0000           -0.5467189             -14.8770
       ...           ...                  ...                  ...
         9        2.0000           -0.3622308              -9.8568
        10        2.0000           -0.3468508              -9.4383
        11        2.0000           -0.3276083              -8.9147
        12        2.0000           -0.3059110              -8.3243
        13        2.0000           -0.3020338              -8.2188
        14        2.0000           -0.2960755              -8.0566
        15        2.0000           -0.2885865              -7.8528
        16        2.0000           -0.2551531              -6.9431
        17        2.0000           -0.2509581              -6.8289
        18        2.0000           -0.2423399              -6.5944
        19        2.0000           -0.2197237              -5.9790
        20        2.0000           -0.1557910              -4.2393
        21        2.0000           -0.1461698              -3.9775 (HOMO)
        22                         -0.0362140              -0.9854 (LUMO)
        23                         -0.0014950              -0.0407
        24                          0.1072628               2.9188
        25                          0.2059807               5.6050
        26                          0.2652826               7.2187
        27                          0.3086261               8.3981
        28                          0.3341165               9.0918
        29                          0.3460276               9.4159
        30                          0.3810041              10.3676
        31                          0.4280001              11.6465
        32                          0.5632556              15.3270
       ...                                ...                  ...
        37                          0.8711093              23.7041
      -------------------------------------------------------------
                  HL-Gap            0.1099558 Eh            2.9921 eV

     #   Z          covCN         q      C6AA      α(0)
     1   6 C        2.920    -0.100    30.531     9.061
     2   6 C        2.828     0.176    24.208     8.062
     3   8 O        1.656    -0.467    22.189     6.359
     4   1 H        0.925    -0.014     3.311     2.845
     5   6 C        2.918    -0.102    30.568     9.066
     6   8 O        0.857    -0.615    26.494     6.901
     7   6 C        2.911    -0.080    30.002     8.982
     8   1 H        0.805     0.259     0.858     1.455
     9   6 C        2.844     0.079    26.231     8.394
    10   1 H        0.924    -0.038     3.810     3.052
    11   6 C        2.911    -0.068    29.683     8.934
    12   1 H        0.925    -0.014     3.308     2.844
    13   1 H        0.925    -0.017     3.373     2.872

Wiberg/Mayer (AO) data.
largest (>0.10) Wiberg bond orders for each atom

     #   Z sym  total        # sym  WBO       # sym  WBO       # sym  WBO
 ---------------------------------------------------------------------------
     1   6 C    3.976 --    11 C    1.502     2 C    1.208    12 H    0.972
                             6 O    0.108
     2   6 C    3.973 --     6 O    1.459     5 C    1.212     1 C    1.208
     3   8 O    1.993 --     9 C    0.967     8 H    0.914
     4   1 H    1.000 --    11 C    0.969
     5   6 C    3.975 --     7 C    1.488     2 C    1.212    13 H    0.972
                             6 O    0.110
     6   8 O    1.774 --     2 C    1.459     5 C    0.110     1 C    0.108
     7   6 C    3.977 --     5 C    1.488     9 C    1.367    10 H    0.962
     8   1 H    0.933 --     3 O    0.914
     9   6 C    3.896 --     7 C    1.367    11 C    1.356     3 O    0.967
    10   1 H    0.999 --     7 C    0.962
    11   6 C    3.984 --     1 C    1.502     9 C    1.356     4 H    0.969
    12   1 H    1.000 --     1 C    0.972
    13   1 H    1.000 --     5 C    0.972
 ---------------------------------------------------------------------------

molecular dipole:
                 x           y           z       tot (Debye)
 q only:       11.899       7.655      -2.073
   full:       11.543       7.399      -2.060      35.240

 projected vibrational frequencies (cm⁻¹)
eigval :       -0.00     0.00     0.00     0.00     0.00     0.00
eigval :      135.17   299.01   335.49   341.59   375.21   435.28
eigval :      443.45   470.89   618.03   644.93   748.74   768.89
eigval :      828.50   861.73   873.90   892.25   984.40  1099.37
eigval :     1149.41  1183.14  1215.13  1234.82  1321.29  1405.50
eigval :     1445.27  1541.34  1557.27  1638.69  2923.35  3004.41
eigval :     3018.59  3029.06  3550.13

   temp. (K)  partition function   enthalpy   heat capacity  entropy
                                   cal/mol     cal/K/mol   cal/K/mol   J/K/mol
 298.15  VIB   9.27                 2416.653     19.975     12.526
         ROT  0.268E+06              888.752      2.981     27.820
         INT  0.248E+07             3305.406     22.956     40.345
         TR   0.110E+28             1481.254      4.968     39.960
         TOT                        4786.6595    27.9241    80.3051   335.9963

       T/K    H(0)-H(T)+PV         H(T)/Eh          T*S/Eh         G(T)/Eh
   ------------------------------------------------------------------------
    298.15    0.762803E-02    0.996073E-01    0.381555E-01    0.614517E-01
   ------------------------------------------------------------------------

         :::::::::::::::::::::::::::::::::::::::::::::::::::::
         ::                  THERMODYNAMIC                  ::
         :::::::::::::::::::::::::::::::::::::::::::::::::::::
         :: total free energy         -23.657036956710 Eh   ::
         ::.................................................::
         :: total energy              -23.718488689714 Eh   ::
         :: zero point energy           0.091979227779 Eh   ::
         :: G(RRHO) w/o ZPVE           -0.030527494776 Eh   ::
         :: G(RRHO) contrib.            0.061451733003 Eh   ::
         :::::::::::::::::::::::::::::::::::::::::::::::::::::

           -------------------------------------------------
          | TOTAL ENERGY              -23.718488689714 Eh   |
          | TOTAL ENTHALPY            -23.618881434412 Eh   |
          | TOTAL FREE ENERGY         -23.657036956710 Eh   |
          | GRADIENT NORM               0.000732516182 Eh/α |
          | HOMO-LUMO GAP               2.992050049064 eV   |
           -------------------------------------------------

 * finished run on 2025/10/18 at 03:01:24.198
