                         Program Version 5.0.4 -  RELEASE  -
|  1> !SP HF def2-SVP CPCM(water)
|  2>
|  3> *xyz -1 1
|  4> C           -0.23500286415981       -0.96774480098512        1.53052034057789
|  5> C           -0.42493347762564       -0.74336725895159       -1.53796872580231
|  6> Cl          -1.88448664182743       -1.22745371379305        1.81719314449317
|  7> H            0.42495548254918       -1.80661007322228        1.66823022128167
|  8> Cl           0.40239361015710        0.57337471153445        1.82908561408633
|  9> O           -1.10790727648458        0.17171863626229       -1.47741993740330
| 10> O            0.25769516739119       -1.65882250084469       -1.61386865723347
| 11> *
| 12>
| 13>                          ****END OF INPUT****

CARTESIAN COORDINATES (ANGSTROEM)
---------------------------------
  C     -0.235003   -0.967745    1.530520
  C     -0.424933   -0.743367   -1.537969
  Cl    -1.884487   -1.227454    1.817193
  H      0.424955   -1.806610    1.668230
  Cl     0.402394    0.573375    1.829086
  O     -1.107907    0.171719   -1.477420
  O      0.257695   -1.658823   -1.613869

 Total Charge           Charge          ....   -1
 Multiplicity           Mult            ....    1
 Number of Electrons    NEL             ....   64
 Basis Dimension        Dim             ....   97

ORBITAL ENERGIES
----------------

  NO   OCC          E(Eh)            E(eV)
   0   2.0000    -104.739270     -2850.1004
   1   2.0000    -104.739135     -2850.0968
   2   2.0000     -20.619524      -561.0858
   3   2.0000     -20.617635      -561.0344
   4   2.0000     -11.444222      -311.4131
   5   2.0000     -11.179373      -304.2062
   6   2.0000     -10.502637      -285.7913
   7   2.0000     -10.502507      -285.7877
   8   2.0000      -7.977944      -217.0909
   9   2.0000      -7.977813      -217.0873
  10   2.0000      -7.975185      -217.0158
  11   2.0000      -7.975055      -217.0123
  12   2.0000      -7.974523      -216.9978
  13   2.0000      -7.974393      -216.9943
  14   2.0000      -1.499932       -40.8152
  15   2.0000      -1.449745       -39.4496
  16   2.0000      -1.116335       -30.3770
  17   2.0000      -1.037597       -28.2344
  18   2.0000      -0.768674       -20.9167
  19   2.0000      -0.743626       -20.2351
  20   2.0000      -0.726535       -19.7700
  21   2.0000      -0.700731       -19.0678
  22   2.0000      -0.698338       -19.0028
  23   2.0000      -0.557709       -15.1760
  24   2.0000      -0.524179       -14.2636
  25   2.0000      -0.523508       -14.2454
  26   2.0000      -0.521141       -14.1810
  27   2.0000      -0.486734       -13.2447
  28   2.0000      -0.419674       -11.4199
  29   2.0000      -0.403515       -10.9802
  30   2.0000      -0.397661       -10.8209
  31   2.0000      -0.196287        -5.3412
  32   0.0000       0.236868         6.4455
  33   0.0000       0.246881         6.7180
  34   0.0000       0.253228         6.8907
  35   0.0000       0.266275         7.2457
  36   0.0000       0.327777         8.9193

MULLIKEN ATOMIC CHARGES
-----------------------
   0 C :   -0.387765
   1 C :    0.626781
   2 Cl:   -0.312511
   3 H :    0.033062
   4 Cl:   -0.312340
   5 O :   -0.325580
   6 O :   -0.321647
Sum of atomic charges:   -1.0000000

LOEWDIN ATOMIC CHARGES
----------------------
   0 C :   -0.743482
   1 C :    0.288221
   2 Cl:   -0.078495
   3 H :   -0.056951
   4 Cl:   -0.078532
   5 O :   -0.164682
   6 O :   -0.166079

  Mayer bond orders larger than 0.100000
B(  0-C ,  2-Cl) :   0.8706 B(  0-C ,  3-H ) :   0.9892 B(  0-C ,  4-Cl) :   0.8706
B(  1-C ,  5-O ) :   2.0771 B(  1-C ,  6-O ) :   2.0753 B(  5-O ,  6-O ) :   0.1556

FINAL SINGLE POINT ENERGY     -1144.608070773882

DIPOLE MOMENT
-------------
                                X             Y             Z
Electronic contribution:     -1.42922       1.80971       0.84382
Nuclear contribution   :      1.38719      -1.76962      -2.28235
                        -----------------------------------------
Total Dipole Moment    :     -0.04203       0.04008      -1.43853
                        -----------------------------------------
Magnitude (a.u.)       :      1.43970
Magnitude (Debye)      :      3.65944

Rotational constants in cm-1:     0.084458     0.044867     0.035374
Rotational constants in MHz :  2531.982664  1345.092449  1060.489182

                             ****ORCA TERMINATED NORMALLY****
TOTAL RUN TIME: 0 days 0 hours 0 minutes 21 seconds 402 msec
