   * xtb version 6.7.1 (edcfbbe) compiled by 'albert@albert-system' on 2024-07-22

   ID    Z sym.   atoms
    1    6 C      1
    2   16 S      2
    3    1 H      3-5

          program call               : xtb xyz.xyz --alpb water --charge -1 --ohess
      * Solvation model:               ALPB
        Solvent                        water
        Solvent mass                       1.8000E+01 g/mol
          :  Hamiltonian                  GFN2-xTB          :
 * total energy  :    -7.2002311 Eh     change       -0.3863576E-12 Eh
 * total energy  :    -7.2017841 Eh     change       -0.1552928E-02 Eh
 * total energy  :    -7.2018173 Eh     change       -0.3324682E-04 Eh
 * total energy  :    -7.2018220 Eh     change       -0.4665880E-05 Eh
   *** GEOMETRY OPTIMIZATION CONVERGED AFTER 4 ITERATIONS ***

 final structure:
================
5
 xtb: 6.7.1 (edcfbbe)
C           -3.77769856366293       -1.76756658838269        1.76688903895617
S           -5.26741487340286       -2.41521905622570        2.55943209462823
H           -4.02310050404048       -1.40555043506372        0.76636707906013
H           -3.37532496815871       -0.94435622868529        2.36080360008952
H           -3.02907709073503       -2.55890269164260        1.69168718726594

          :  Hamiltonian                  GFN2-xTB          :
         :: gradient norm              0.000850366550 Eh/a0 ::
         :: HOMO-LUMO gap              4.408709420999 eV    ::
         :: SCC energy                -7.259625718737 Eh    ::
         :: -> dispersion             -0.001858321543 Eh    ::
         :: -> Gsolv                  -0.099611671730 Eh    ::
         :: repulsion energy           0.057803732573 Eh    ::

    * Orbital Energies and Occupations

         #    Occupation            Energy/Eh            Energy/eV
      -------------------------------------------------------------
         1        2.0000           -0.6323534             -17.2072
         2        2.0000           -0.5776304             -15.7181
         3        2.0000           -0.4774918             -12.9932
         4        2.0000           -0.4774884             -12.9931
         5        2.0000           -0.4169787             -11.3466
         6        2.0000           -0.2872812              -7.8173
         7        2.0000           -0.2872793              -7.8173 (HOMO)
         8                         -0.1252622              -3.4086 (LUMO)
         9                          0.0432238               1.1762
        10                          0.0432321               1.1764
        11                          0.0611103               1.6629
        12                          0.0611121               1.6629
        13                          0.1516398               4.1263
        14                          0.2334667               6.3530
        15                          0.2334827               6.3534
        16                          0.3544444               9.6449
      -------------------------------------------------------------
                  HL-Gap            0.1620171 Eh            4.4087 eV

     #   Z          covCN         q      C6AA      α(0)
     1   6 C        3.743     0.043    19.921     6.367
     2  16 S        0.970    -0.978   187.074    23.134
     3   1 H        0.924    -0.022     3.464     2.911
     4   1 H        0.924    -0.022     3.464     2.911
     5   1 H        0.924    -0.022     3.464     2.911

Wiberg/Mayer (AO) data.
largest (>0.10) Wiberg bond orders for each atom

     #   Z sym  total        # sym  WBO       # sym  WBO       # sym  WBO
 ---------------------------------------------------------------------------
     1   6 C    3.994 --     2 S    1.028     3 H    0.989     4 H    0.989
                             5 H    0.989
     2  16 S    1.060 --     1 C    1.028
     3   1 H    1.000 --     1 C    0.989
     4   1 H    1.000 --     1 C    0.989
     5   1 H    1.000 --     1 C    0.989
 ---------------------------------------------------------------------------

molecular dipole:
                 x           y           z       tot (Debye)
 q only:        9.854       4.521      -4.784
   full:       10.321       4.724      -5.032      31.558

 projected vibrational frequencies (cm⁻¹)
eigval :       -0.00    -0.00     0.00     0.00     0.00     0.00
eigval :      727.42   937.63   937.88  1316.05  1485.19  1485.51
eigval :     2915.48  2915.60  2946.51

   temp. (K)  partition function   enthalpy   heat capacity  entropy
                                   cal/mol     cal/K/mol   cal/K/mol   J/K/mol
 298.15  VIB   1.06                  135.948      1.978      0.566
         ROT  0.174E+04              888.752      2.981     17.806
         INT  0.184E+04             1024.701      4.959     18.372
         TR   0.313E+27             1481.254      4.968     37.457
         TOT                        2505.9545     9.9267    55.8289   233.5882

       T/K    H(0)-H(T)+PV         H(T)/Eh          T*S/Eh         G(T)/Eh
   ------------------------------------------------------------------------
    298.15    0.399349E-02    0.396862E-01    0.265261E-01    0.131600E-01
   ------------------------------------------------------------------------

         :::::::::::::::::::::::::::::::::::::::::::::::::::::
         ::                  THERMODYNAMIC                  ::
         :::::::::::::::::::::::::::::::::::::::::::::::::::::
         :: total free energy          -7.188661937750 Eh   ::
         ::.................................................::
         :: total energy               -7.201821987046 Eh   ::
         :: zero point energy           0.035692673816 Eh   ::
         :: G(RRHO) w/o ZPVE           -0.022532624520 Eh   ::
         :: G(RRHO) contrib.            0.013160049296 Eh   ::
         :::::::::::::::::::::::::::::::::::::::::::::::::::::

           -------------------------------------------------
          | TOTAL ENERGY               -7.201821987046 Eh   |
          | TOTAL ENTHALPY             -7.162135820581 Eh   |
          | TOTAL FREE ENERGY          -7.188661937750 Eh   |
          | GRADIENT NORM               0.000850375565 Eh/α |
          | HOMO-LUMO GAP               4.408709443146 eV   |
           -------------------------------------------------

 * finished run on 2025/10/18 at 05:34:38.128
