   * xtb version 6.7.1 (edcfbbe) compiled by 'albert@albert-system' on 2024-07-22

   ID    Z sym.   atoms
    1    1 H      1, 4, 5, 9, 11, 13, 15, 16
    2    6 C      2, 3, 6-8, 10
    3    7 N      12
    4    8 O      14

          program call               : xtb tb_lite_results_shiftn0p15_gp664_b0_rot270_complex.xyz --ohess --chrg -1 --alpb water
      * Solvation model:               ALPB
        Solvent                        water
        Solvent mass                       1.8000E+01 g/mol
          :  Hamiltonian                  GFN2-xTB          :
 * total energy  :   -24.1574423 Eh     change       -0.5081091E-10 Eh
 * total energy  :   -24.1612583 Eh     change       -0.3815987E-02 Eh
 * total energy  :   -24.1616246 Eh     change       -0.3663014E-03 Eh
 * total energy  :   -24.1617713 Eh     change       -0.1467206E-03 Eh
 * total energy  :   -24.1618975 Eh     change       -0.1261369E-03 Eh
 * total energy  :   -24.1619275 Eh     change       -0.3001971E-04 Eh
 * total energy  :   -24.1619595 Eh     change       -0.3198382E-04 Eh
 * total energy  :   -24.1619823 Eh     change       -0.2284672E-04 Eh
 * total energy  :   -24.1620044 Eh     change       -0.2206087E-04 Eh
 * total energy  :   -24.1620468 Eh     change       -0.4242383E-04 Eh
 * total energy  :   -24.1627037 Eh     change       -0.9108991E-03 Eh
 * total energy  :   -24.1627270 Eh     change       -0.2334185E-04 Eh
 * total energy  :   -24.1627374 Eh     change       -0.1038103E-04 Eh
 * total energy  :   -24.1627457 Eh     change       -0.8247930E-05 Eh
 * total energy  :   -24.1627824 Eh     change       -0.3668985E-04 Eh
 * total energy  :   -24.1628016 Eh     change       -0.1927116E-04 Eh
 * total energy  :   -24.1628179 Eh     change       -0.1623736E-04 Eh
 * total energy  :   -24.1628326 Eh     change       -0.1471823E-04 Eh
 * total energy  :   -24.1628355 Eh     change       -0.2948534E-05 Eh
   *** GEOMETRY OPTIMIZATION CONVERGED AFTER 44 ITERATIONS ***

 final structure:
================
16
 xtb: 6.7.1 (edcfbbe)
H           -3.59812431435449        3.46752698796640       -0.91564971588666
C           -0.23155044129918        3.40068340515554       -0.31624047660254
C           -2.64016958335195        3.07908204086147       -0.58473765903048
H           -1.25355338263307        0.35631514294395        0.84125428189933
H            0.76461010326893        1.73280178268901        0.60049406350430
C           -2.56797240731098        1.81084571546195       -0.02609763534604
C           -1.51544199930306        3.85476990651660       -0.72646014638238
C           -1.32761409938435        1.34215129617082        0.39536983954340
H           -3.45549739788044        1.20296751198054        0.08254264510636
C           -0.19446779302258        2.10179397459427        0.26003521214198
H           -1.58956048178379        4.84881324331648       -1.16444674232467
N            0.89495710658365        4.09387808780523       -0.44841843353503
H            0.71797815948240        5.01738352003084       -0.84848562209425
O            3.16196917396794        3.43217149263962        0.69417159075764
H            2.26652380382161        3.70549303225837        0.29931241291570
H            3.70028875253721        3.20915073118133       -0.07091404960163

          :  Hamiltonian                  GFN2-xTB          :
         :: gradient norm              0.000680431745 Eh/a0 ::
         :: HOMO-LUMO gap              2.982017490228 eV    ::
         :: SCC energy               -24.519191969297 Eh    ::
         :: -> dispersion             -0.012456457334 Eh    ::
         :: -> Gsolv                  -0.091590799614 Eh    ::
         :: repulsion energy           0.356356428988 Eh    ::

    * Orbital Energies and Occupations

         #    Occupation            Energy/Eh            Energy/eV
      -------------------------------------------------------------
         1        2.0000           -0.6362563             -17.3134
       ...           ...                  ...                  ...
        10        2.0000           -0.4717903             -12.8381
        11        2.0000           -0.4704836             -12.8025
        12        2.0000           -0.4540658             -12.3558
        13        2.0000           -0.4452868             -12.1169
        14        2.0000           -0.4383089             -11.9270
        15        2.0000           -0.4335498             -11.7975
        16        2.0000           -0.4026581             -10.9569
        17        2.0000           -0.3995584             -10.8725
        18        2.0000           -0.3889248             -10.5832
        19        2.0000           -0.3861947             -10.5089
        20        2.0000           -0.3657438              -9.9524
        21        2.0000           -0.3279839              -8.9249
        22        2.0000           -0.2905764              -7.9070 (HOMO)
        23                         -0.1809893              -4.9250 (LUMO)
        24                         -0.1567707              -4.2659
        25                         -0.0434779              -1.1831
        26                          0.1029695               2.8019
        27                          0.1414079               3.8479
        28                          0.1576502               4.2899
        29                          0.1672075               4.5499
        30                          0.2078000               5.6545
        31                          0.2164254               5.8892
        32                          0.2313087               6.2942
        33                          0.2745207               7.4701
       ...                                ...                  ...
        40                          0.7096233              19.3098
      -------------------------------------------------------------
                  HL-Gap            0.1095871 Eh            2.9820 eV

     #   Z          covCN         q      C6AA      α(0)
     1   1 H        0.925    -0.019     3.408     2.887
     2   6 C        2.889     0.078    26.267     8.403
     3   6 C        2.914    -0.049    29.226     8.865
     4   1 H        0.925    -0.013     3.295     2.838
     5   1 H        0.925    -0.013     3.301     2.841
     6   6 C        2.917    -0.086    30.152     9.004
     7   6 C        2.919    -0.094    30.373     9.038
     8   6 C        2.915    -0.049    29.216     8.863
     9   1 H        0.925    -0.017     3.369     2.870
    10   6 C        2.924    -0.088    30.196     9.011
    11   1 H        0.925    -0.046     4.001     3.128
    12   7 N        1.811    -0.561    36.374     8.935
    13   1 H        0.860     0.058     2.235     2.342
    14   8 O        1.600    -0.720    28.250     7.173
    15   1 H        0.824     0.293     0.740     1.349
    16   1 H        0.805     0.327     0.645     1.261

Wiberg/Mayer (AO) data.
largest (>0.10) Wiberg bond orders for each atom

     #   Z sym  total        # sym  WBO       # sym  WBO       # sym  WBO
 ---------------------------------------------------------------------------
     1   1 H    0.999 --     3 C    0.970
     2   6 C    3.982 --    12 N    1.422     7 C    1.234    10 C    1.233
     3   6 C    3.989 --     7 C    1.500     6 C    1.399     1 H    0.970
     4   1 H    0.999 --     8 C    0.971
     5   1 H    1.000 --    10 C    0.971
     6   6 C    3.972 --     3 C    1.399     8 C    1.380     9 H    0.973
     7   6 C    3.971 --     3 C    1.500     2 C    1.234    11 H    0.967
     8   6 C    3.990 --    10 C    1.522     6 C    1.380     4 H    0.971
     9   1 H    1.000 --     6 C    0.973
    10   6 C    3.980 --     8 C    1.522     2 C    1.233     5 H    0.971
    11   1 H    0.998 --     7 C    0.967
    12   7 N    2.871 --     2 C    1.422    13 H    0.971    15 H    0.127
    13   1 H    0.996 --    12 N    0.971
    14   8 O    1.739 --    16 H    0.892    15 H    0.782
    15   1 H    0.914 --    14 O    0.782    12 N    0.127
    16   1 H    0.893 --    14 O    0.892
 ---------------------------------------------------------------------------

molecular dipole:
                 x           y           z       tot (Debye)
 q only:       -0.185      -6.304      -0.282
   full:       -0.593      -6.133      -0.576      15.728

 projected vibrational frequencies (cm⁻¹)
eigval :       -0.00    -0.00    -0.00     0.00     0.00     0.00
eigval :       20.69    55.58   133.35   186.91   228.64   371.47
eigval :      427.66   463.13   507.24   527.84   589.68   629.23
eigval :      648.87   731.46   795.84   837.75   840.44   869.29
eigval :      899.51   906.67   960.69  1076.56  1104.96  1174.56
eigval :     1194.63  1201.05  1315.87  1364.06  1377.56  1471.48
eigval :     1505.48  1522.51  1539.72  1618.88  2402.07  2947.58
eigval :     2989.13  3000.65  3034.67  3050.82  3267.98  3624.85

   temp. (K)  partition function   enthalpy   heat capacity  entropy
                                   cal/mol     cal/K/mol   cal/K/mol   J/K/mol
 298.15  VIB   597.                 3711.837     24.300     22.595
         ROT  0.399E+06              888.752      2.981     28.612
         INT  0.238E+09             4600.589     27.281     51.207
         TR   0.112E+28             1481.254      4.968     39.988
         TOT                        6081.8429    32.2490    91.1944   381.5574

       T/K    H(0)-H(T)+PV         H(T)/Eh          T*S/Eh         G(T)/Eh
   ------------------------------------------------------------------------
    298.15    0.969203E-02    0.131385E+00    0.433294E-01    0.880556E-01
   ------------------------------------------------------------------------

         :::::::::::::::::::::::::::::::::::::::::::::::::::::
         ::                  THERMODYNAMIC                  ::
         :::::::::::::::::::::::::::::::::::::::::::::::::::::
         :: total free energy         -24.074779974050 Eh   ::
         ::.................................................::
         :: total energy              -24.162835538346 Eh   ::
         :: zero point energy           0.121692936876 Eh   ::
         :: G(RRHO) w/o ZPVE           -0.033637372580 Eh   ::
         :: G(RRHO) contrib.            0.088055564296 Eh   ::
         :::::::::::::::::::::::::::::::::::::::::::::::::::::

           -------------------------------------------------
          | TOTAL ENERGY              -24.162835538346 Eh   |
          | TOTAL ENTHALPY            -24.031450567956 Eh   |
          | TOTAL FREE ENERGY         -24.074779974050 Eh   |
          | GRADIENT NORM               0.000680261742 Eh/α |
          | HOMO-LUMO GAP               2.982017721140 eV   |
           -------------------------------------------------

 * finished run on 2025/10/17 at 21:54:34.565
normal termination of xtb
