   * xtb version 6.7.1 (edcfbbe) compiled by 'albert@albert-system' on 2024-07-22

   ID    Z sym.   atoms
    1    1 H      1, 4, 5, 9, 11, 13, 15, 16
    2    6 C      2, 3, 6-8, 10
    3    7 N      12
    4    8 O      14

          program call               : xtb tb_lite_results_shiftn0p15_gp707_b0_rot0_complex.xyz --ohess --chrg -1 --alpb water
      * Solvation model:               ALPB
        Solvent                        water
        Solvent mass                       1.8000E+01 g/mol
          :  Hamiltonian                  GFN2-xTB          :
 * total energy  :   -24.1569231 Eh     change       -0.5793410E-10 Eh
 * total energy  :   -24.1609593 Eh     change       -0.4036116E-02 Eh
 * total energy  :   -24.1614273 Eh     change       -0.4680042E-03 Eh
 * total energy  :   -24.1616472 Eh     change       -0.2199674E-03 Eh
 * total energy  :   -24.1618340 Eh     change       -0.1867607E-03 Eh
 * total energy  :   -24.1618867 Eh     change       -0.5270250E-04 Eh
 * total energy  :   -24.1619205 Eh     change       -0.3378631E-04 Eh
 * total energy  :   -24.1619404 Eh     change       -0.1992678E-04 Eh
 * total energy  :   -24.1619570 Eh     change       -0.1657702E-04 Eh
 * total energy  :   -24.1619742 Eh     change       -0.1721579E-04 Eh
 * total energy  :   -24.1627162 Eh     change       -0.9324608E-05 Eh
 * total energy  :   -24.1627294 Eh     change       -0.1322258E-04 Eh
 * total energy  :   -24.1627474 Eh     change       -0.1800570E-04 Eh
 * total energy  :   -24.1627749 Eh     change       -0.2748036E-04 Eh
 * total energy  :   -24.1627909 Eh     change       -0.1601988E-04 Eh
 * total energy  :   -24.1628071 Eh     change       -0.1618099E-04 Eh
 * total energy  :   -24.1628126 Eh     change       -0.5488952E-05 Eh
 * total energy  :   -24.1628163 Eh     change       -0.3726975E-05 Eh
 * total energy  :   -24.1628174 Eh     change       -0.1082850E-05 Eh
   *** GEOMETRY OPTIMIZATION CONVERGED AFTER 50 ITERATIONS ***

 final structure:
================
16
 xtb: 6.7.1 (edcfbbe)
H           -3.65241646806907        3.59840569455052       -0.74842509459001
C           -0.26758205663906        3.27526418793088       -0.37506181826255
C           -2.70598394560414        3.13461594246170       -0.48843926198838
H           -1.43349256191070        0.28781938023888        0.79548732425777
H            0.66132037462099        1.51862048188192        0.44133324606031
C           -2.69125895082473        1.85318145895595        0.04408469758130
C           -1.53860228516779        3.82924318176720       -0.69306987255234
C           -1.46354351670878        1.28585140396985        0.37202446151950
H           -3.61242701865846        1.30988265451832        0.20329752022109
C           -0.28863807110098        1.96397137154395        0.17400550605798
H           -1.56769715095197        4.83465253415609       -1.11002484696983
N            0.89570487850153        3.88958772690249       -0.56486315301434
H            0.76294210608087        4.82951824799164       -0.94305580658705
O            3.20937348072030        2.95591309076064        0.24321840821154
H            2.30013527663391        3.32614969138543       -0.01665267540547
H            3.61908519146516        2.72334855929765       -0.59467852579160

          :  Hamiltonian                  GFN2-xTB          :
         :: gradient norm              0.000810339239 Eh/a0 ::
         :: HOMO-LUMO gap              2.980634178818 eV    ::
         :: SCC energy               -24.519059366366 Eh    ::
         :: -> dispersion             -0.012454226163 Eh    ::
         :: -> Gsolv                  -0.091478848012 Eh    ::
         :: repulsion energy           0.356241969166 Eh    ::

    * Orbital Energies and Occupations

         #    Occupation            Energy/Eh            Energy/eV
      -------------------------------------------------------------
         1        2.0000           -0.6362172             -17.3124
       ...           ...                  ...                  ...
        10        2.0000           -0.4717690             -12.8375
        11        2.0000           -0.4704465             -12.8015
        12        2.0000           -0.4540119             -12.3543
        13        2.0000           -0.4452769             -12.1166
        14        2.0000           -0.4383017             -11.9268
        15        2.0000           -0.4335489             -11.7975
        16        2.0000           -0.4026826             -10.9576
        17        2.0000           -0.3994802             -10.8704
        18        2.0000           -0.3889003             -10.5825
        19        2.0000           -0.3862555             -10.5105
        20        2.0000           -0.3657369              -9.9522
        21        2.0000           -0.3279446              -8.9238
        22        2.0000           -0.2905447              -7.9061 (HOMO)
        23                         -0.1810084              -4.9255 (LUMO)
        24                         -0.1567202              -4.2646
        25                         -0.0434769              -1.1831
        26                          0.1024080               2.7867
        27                          0.1413814               3.8472
        28                          0.1579098               4.2969
        29                          0.1670060               4.5445
        30                          0.2079370               5.6583
        31                          0.2163717               5.8878
        32                          0.2311224               6.2892
        33                          0.2746496               7.4736
       ...                                ...                  ...
        40                          0.7093727              19.3030
      -------------------------------------------------------------
                  HL-Gap            0.1095363 Eh            2.9806 eV

     #   Z          covCN         q      C6AA      α(0)
     1   1 H        0.925    -0.019     3.410     2.888
     2   6 C        2.889     0.077    26.270     8.403
     3   6 C        2.914    -0.049    29.226     8.865
     4   1 H        0.925    -0.013     3.296     2.839
     5   1 H        0.925    -0.013     3.301     2.841
     6   6 C        2.917    -0.086    30.155     9.005
     7   6 C        2.919    -0.095    30.376     9.038
     8   6 C        2.915    -0.049    29.216     8.863
     9   1 H        0.925    -0.017     3.372     2.871
    10   6 C        2.924    -0.088    30.201     9.012
    11   1 H        0.925    -0.046     4.003     3.129
    12   7 N        1.811    -0.561    36.367     8.935
    13   1 H        0.860     0.059     2.231     2.340
    14   8 O        1.600    -0.720    28.248     7.173
    15   1 H        0.825     0.293     0.738     1.348
    16   1 H        0.805     0.327     0.645     1.262

Wiberg/Mayer (AO) data.
largest (>0.10) Wiberg bond orders for each atom

     #   Z sym  total        # sym  WBO       # sym  WBO       # sym  WBO
 ---------------------------------------------------------------------------
     1   1 H    0.999 --     3 C    0.970
     2   6 C    3.982 --    12 N    1.423     7 C    1.234    10 C    1.232
     3   6 C    3.989 --     7 C    1.500     6 C    1.399     1 H    0.970
     4   1 H    0.999 --     8 C    0.971
     5   1 H    1.000 --    10 C    0.971
     6   6 C    3.972 --     3 C    1.399     8 C    1.379     9 H    0.973
     7   6 C    3.971 --     3 C    1.500     2 C    1.234    11 H    0.967
     8   6 C    3.990 --    10 C    1.522     6 C    1.379     4 H    0.971
     9   1 H    1.000 --     6 C    0.973
    10   6 C    3.980 --     8 C    1.522     2 C    1.232     5 H    0.971
    11   1 H    0.998 --     7 C    0.967
    12   7 N    2.873 --     2 C    1.423    13 H    0.971    15 H    0.127
    13   1 H    0.996 --    12 N    0.971
    14   8 O    1.739 --    16 H    0.892    15 H    0.782
    15   1 H    0.914 --    14 O    0.782    12 N    0.127
    16   1 H    0.893 --    14 O    0.892
 ---------------------------------------------------------------------------

molecular dipole:
                 x           y           z       tot (Debye)
 q only:       -0.207      -5.966      -0.083
   full:       -0.631      -5.755      -0.345      14.741

 projected vibrational frequencies (cm⁻¹)
eigval :       -0.00    -0.00     0.00     0.00     0.00     0.00
eigval :       34.86    57.08    85.39   188.55   226.75   371.90
eigval :      428.14   462.98   507.44   525.45   589.75   628.13
eigval :      648.58   732.42   796.27   838.85   839.87   867.39
eigval :      901.29   907.18   960.32  1076.19  1104.63  1174.61
eigval :     1194.53  1201.00  1315.70  1363.46  1377.51  1471.25
eigval :     1508.56  1525.51  1538.98  1618.71  2410.24  2946.87
eigval :     2987.60  2999.95  3033.37  3049.43  3268.69  3631.71

   temp. (K)  partition function   enthalpy   heat capacity  entropy
                                   cal/mol     cal/K/mol   cal/K/mol   J/K/mol
 298.15  VIB   503.                 3747.762     24.444     23.109
         ROT  0.399E+06              888.752      2.981     28.612
         INT  0.201E+09             4636.514     27.425     51.721
         TR   0.112E+28             1481.254      4.968     39.988
         TOT                        6117.7678    32.3931    91.7087   383.7091

       T/K    H(0)-H(T)+PV         H(T)/Eh          T*S/Eh         G(T)/Eh
   ------------------------------------------------------------------------
    298.15    0.974928E-02    0.131397E+00    0.435737E-01    0.878230E-01
   ------------------------------------------------------------------------

         :::::::::::::::::::::::::::::::::::::::::::::::::::::
         ::                  THERMODYNAMIC                  ::
         :::::::::::::::::::::::::::::::::::::::::::::::::::::
         :: total free energy         -24.074994401484 Eh   ::
         ::.................................................::
         :: total energy              -24.162817398243 Eh   ::
         :: zero point energy           0.121647461856 Eh   ::
         :: G(RRHO) w/o ZPVE           -0.033824465098 Eh   ::
         :: G(RRHO) contrib.            0.087822996759 Eh   ::
         :::::::::::::::::::::::::::::::::::::::::::::::::::::

           -------------------------------------------------
          | TOTAL ENERGY              -24.162817398243 Eh   |
          | TOTAL ENTHALPY            -24.031420652765 Eh   |
          | TOTAL FREE ENERGY         -24.074994401484 Eh   |
          | GRADIENT NORM               0.000809385199 Eh/α |
          | HOMO-LUMO GAP               2.980635275302 eV   |
           -------------------------------------------------

 * finished run on 2025/10/17 at 21:54:43.540
normal termination of xtb
