   * xtb version 6.7.1 (edcfbbe) compiled by 'albert@albert-system' on 2024-07-22

   ID    Z sym.   atoms
    1    1 H      1, 4, 5, 9, 11, 13, 15, 16
    2    6 C      2, 3, 6-8, 10
    3    7 N      12
    4    8 O      14

          program call               : xtb tb_lite_results_shiftn0p2_gp712_b0_rot180_complex.xyz --ohess --chrg -1 --alpb water
      * Solvation model:               ALPB
        Solvent                        water
        Solvent mass                       1.8000E+01 g/mol
          :  Hamiltonian                  GFN2-xTB          :
 * total energy  :   -24.1572856 Eh     change       -0.5412559E-10 Eh
 * total energy  :   -24.1610983 Eh     change       -0.3812690E-02 Eh
 * total energy  :   -24.1615152 Eh     change       -0.4168879E-03 Eh
 * total energy  :   -24.1617240 Eh     change       -0.2088238E-03 Eh
 * total energy  :   -24.1618588 Eh     change       -0.1348228E-03 Eh
 * total energy  :   -24.1619209 Eh     change       -0.6205486E-04 Eh
 * total energy  :   -24.1619638 Eh     change       -0.4297061E-04 Eh
 * total energy  :   -24.1620054 Eh     change       -0.4152201E-04 Eh
 * total energy  :   -24.1620500 Eh     change       -0.4464895E-04 Eh
 * total energy  :   -24.1620688 Eh     change       -0.1884050E-04 Eh
 * total energy  :   -24.1628091 Eh     change       -0.1687225E-04 Eh
 * total energy  :   -24.1628136 Eh     change       -0.4436551E-05 Eh
 * total energy  :   -24.1628206 Eh     change       -0.7079437E-05 Eh
 * total energy  :   -24.1628257 Eh     change       -0.5109619E-05 Eh
 * total energy  :   -24.1628320 Eh     change       -0.6235993E-05 Eh
 * total energy  :   -24.1628442 Eh     change       -0.1218976E-04 Eh
 * total energy  :   -24.1628496 Eh     change       -0.5444581E-05 Eh
 * total energy  :   -24.1628513 Eh     change       -0.1693495E-05 Eh
 * total energy  :   -24.1628534 Eh     change       -0.2079531E-05 Eh
   *** GEOMETRY OPTIMIZATION CONVERGED AFTER 41 ITERATIONS ***

 final structure:
================
16
 xtb: 6.7.1 (edcfbbe)
H           -3.55644821003430        3.38963572884935       -1.10562919367297
C           -0.25254231365774        3.44611594827956       -0.22384796811168
C           -2.61719401943829        3.03793605118129       -0.69060890303016
H           -1.26558152712819        0.38122932195912        0.88579381551801
H            0.71919033392667        1.82394121930322        0.79471720616961
C           -2.55039148020692        1.78015384835064       -0.10842582253476
C           -1.51054886726542        3.84976296742202       -0.74955302405530
C           -1.33460547102225        1.35872643119517        0.42121622898768
H           -3.42382982762545        1.14456762692112       -0.06352179402981
C           -0.22002777054119        2.15544834334490        0.37037635324640
H           -1.58038507612808        4.83503539922105       -1.20745686459718
N            0.85749439259136        4.17739776195861       -0.27026201977641
H            0.67974690717727        5.09131359386755       -0.69219326660434
O            2.89870132906551        3.83747892776051        1.33427972140827
H            2.07670624107325        3.96937857256130        0.74943460939052
H            3.61835889688627        3.71025558571678        0.70840408611896

          :  Hamiltonian                  GFN2-xTB          :
         :: gradient norm              0.000440035811 Eh/a0 ::
         :: HOMO-LUMO gap              2.983910055285 eV    ::
         :: SCC energy               -24.518844667147 Eh    ::
         :: -> dispersion             -0.012445683024 Eh    ::
         :: -> Gsolv                  -0.091856579850 Eh    ::
         :: repulsion energy           0.355991282695 Eh    ::

    * Orbital Energies and Occupations

         #    Occupation            Energy/Eh            Energy/eV
      -------------------------------------------------------------
         1        2.0000           -0.6362594             -17.3135
       ...           ...                  ...                  ...
        10        2.0000           -0.4719960             -12.8437
        11        2.0000           -0.4703466             -12.7988
        12        2.0000           -0.4543720             -12.3641
        13        2.0000           -0.4454855             -12.1223
        14        2.0000           -0.4384067             -11.9297
        15        2.0000           -0.4336226             -11.7995
        16        2.0000           -0.4026842             -10.9576
        17        2.0000           -0.3997160             -10.8768
        18        2.0000           -0.3891198             -10.5885
        19        2.0000           -0.3862005             -10.5091
        20        2.0000           -0.3659293              -9.9574
        21        2.0000           -0.3281844              -8.9304
        22        2.0000           -0.2908842              -7.9154 (HOMO)
        23                         -0.1812275              -4.9315 (LUMO)
        24                         -0.1572443              -4.2788
        25                         -0.0439287              -1.1954
        26                          0.1044838               2.8431
        27                          0.1411240               3.8402
        28                          0.1574526               4.2845
        29                          0.1668044               4.5390
        30                          0.2072603               5.6398
        31                          0.2160265               5.8784
        32                          0.2310469               6.2871
        33                          0.2736249               7.4457
       ...                                ...                  ...
        40                          0.7090285              19.2936
      -------------------------------------------------------------
                  HL-Gap            0.1096567 Eh            2.9839 eV

     #   Z          covCN         q      C6AA      α(0)
     1   1 H        0.925    -0.018     3.398     2.883
     2   6 C        2.889     0.078    26.267     8.403
     3   6 C        2.914    -0.049    29.225     8.865
     4   1 H        0.925    -0.013     3.286     2.835
     5   1 H        0.925    -0.014     3.316     2.848
     6   6 C        2.917    -0.086    30.144     9.003
     7   6 C        2.920    -0.094    30.366     9.036
     8   6 C        2.915    -0.049    29.215     8.863
     9   1 H        0.926    -0.016     3.357     2.865
    10   6 C        2.924    -0.087    30.176     9.009
    11   1 H        0.925    -0.046     3.990     3.124
    12   7 N        1.814    -0.561    36.375     8.936
    13   1 H        0.860     0.058     2.235     2.342
    14   8 O        1.600    -0.722    28.298     7.179
    15   1 H        0.827     0.291     0.745     1.354
    16   1 H        0.805     0.328     0.642     1.259

Wiberg/Mayer (AO) data.
largest (>0.10) Wiberg bond orders for each atom

     #   Z sym  total        # sym  WBO       # sym  WBO       # sym  WBO
 ---------------------------------------------------------------------------
     1   1 H    0.999 --     3 C    0.970
     2   6 C    3.982 --    12 N    1.418     7 C    1.235    10 C    1.234
     3   6 C    3.989 --     7 C    1.500     6 C    1.400     1 H    0.970
     4   1 H    0.999 --     8 C    0.971
     5   1 H    1.000 --    10 C    0.971
     6   6 C    3.972 --     3 C    1.400     8 C    1.380     9 H    0.973
     7   6 C    3.971 --     3 C    1.500     2 C    1.235    11 H    0.967
     8   6 C    3.990 --    10 C    1.522     6 C    1.380     4 H    0.971
     9   1 H    1.000 --     6 C    0.973
    10   6 C    3.980 --     8 C    1.522     2 C    1.234     5 H    0.971
    11   1 H    0.998 --     7 C    0.967
    12   7 N    2.870 --     2 C    1.418    13 H    0.972    15 H    0.131
    13   1 H    0.996 --    12 N    0.972
    14   8 O    1.737 --    16 H    0.892    15 H    0.779
    15   1 H    0.915 --    14 O    0.779    12 N    0.131
    16   1 H    0.892 --    14 O    0.892
 ---------------------------------------------------------------------------

molecular dipole:
                 x           y           z       tot (Debye)
 q only:        0.022      -6.479      -0.573
   full:       -0.339      -6.326      -0.900      16.265

 projected vibrational frequencies (cm⁻¹)
eigval :       -0.00    -0.00    -0.00     0.00     0.00     0.00
eigval :       17.09    49.31    63.94   182.64   236.86   371.63
eigval :      427.20   463.02   507.32   533.66   589.57   632.49
eigval :      651.31   732.23   796.16   837.16   839.16   864.74
eigval :      900.49   905.59   960.78  1076.11  1105.25  1174.81
eigval :     1196.00  1201.12  1316.53  1363.59  1377.11  1471.32
eigval :     1506.06  1522.78  1540.04  1617.91  2369.52  2948.27
eigval :     2989.49  3000.97  3033.78  3050.18  3265.07  3616.29

   temp. (K)  partition function   enthalpy   heat capacity  entropy
                                   cal/mol     cal/K/mol   cal/K/mol   J/K/mol
 298.15  VIB  0.141E+04             3802.123     23.949     23.915
         ROT  0.400E+06              888.752      2.981     28.617
         INT  0.565E+09             4690.875     26.930     52.532
         TR   0.112E+28             1481.254      4.968     39.988
         TOT                        6172.1293    31.8985    92.5194   387.1011

       T/K    H(0)-H(T)+PV         H(T)/Eh          T*S/Eh         G(T)/Eh
   ------------------------------------------------------------------------
    298.15    0.983591E-02    0.131273E+00    0.439589E-01    0.873137E-01
   ------------------------------------------------------------------------

         :::::::::::::::::::::::::::::::::::::::::::::::::::::
         ::                  THERMODYNAMIC                  ::
         :::::::::::::::::::::::::::::::::::::::::::::::::::::
         :: total free energy         -24.075539725184 Eh   ::
         ::.................................................::
         :: total energy              -24.162853383905 Eh   ::
         :: zero point energy           0.121436684603 Eh   ::
         :: G(RRHO) w/o ZPVE           -0.034123025882 Eh   ::
         :: G(RRHO) contrib.            0.087313658721 Eh   ::
         :::::::::::::::::::::::::::::::::::::::::::::::::::::

           -------------------------------------------------
          | TOTAL ENERGY              -24.162853383905 Eh   |
          | TOTAL ENTHALPY            -24.031580785186 Eh   |
          | TOTAL FREE ENERGY         -24.075539725184 Eh   |
          | GRADIENT NORM               0.000440123826 Eh/α |
          | HOMO-LUMO GAP               2.983910873247 eV   |
           -------------------------------------------------

 * finished run on 2025/10/17 at 21:54:37.991
normal termination of xtb
