   * xtb version 6.7.1 (edcfbbe) compiled by 'albert@albert-system' on 2024-07-22

   ID    Z sym.   atoms
    1    1 H      1, 4, 5, 9, 11, 13, 15, 16
    2    6 C      2, 3, 6-8, 10
    3    7 N      12
    4    8 O      14

          program call               : xtb tb_lite_results_shiftn0p2_gp664_b0_rot270_complex.xyz --ohess --chrg -1 --alpb water
      * Solvation model:               ALPB
        Solvent                        water
        Solvent mass                       1.8000E+01 g/mol
          :  Hamiltonian                  GFN2-xTB          :
 * total energy  :   -24.1572404 Eh     change       -0.5291056E-10 Eh
 * total energy  :   -24.1614079 Eh     change       -0.4167505E-02 Eh
 * total energy  :   -24.1617280 Eh     change       -0.3200783E-03 Eh
 * total energy  :   -24.1618128 Eh     change       -0.8475011E-04 Eh
 * total energy  :   -24.1619078 Eh     change       -0.9499316E-04 Eh
 * total energy  :   -24.1619377 Eh     change       -0.2992933E-04 Eh
 * total energy  :   -24.1619677 Eh     change       -0.3006168E-04 Eh
 * total energy  :   -24.1619929 Eh     change       -0.2511377E-04 Eh
 * total energy  :   -24.1620031 Eh     change       -0.1024320E-04 Eh
 * total energy  :   -24.1620384 Eh     change       -0.3526162E-04 Eh
 * total energy  :   -24.1627485 Eh     change       -0.1202218E-04 Eh
 * total energy  :   -24.1627907 Eh     change       -0.4214819E-04 Eh
 * total energy  :   -24.1628171 Eh     change       -0.2648465E-04 Eh
 * total energy  :   -24.1628235 Eh     change       -0.6387730E-05 Eh
 * total energy  :   -24.1628324 Eh     change       -0.8900624E-05 Eh
 * total energy  :   -24.1628390 Eh     change       -0.6532795E-05 Eh
 * total energy  :   -24.1628351 Eh     change        0.3830872E-05 Eh
 * total energy  :   -24.1628437 Eh     change       -0.8610435E-05 Eh
 * total energy  :   -24.1628460 Eh     change       -0.2276440E-05 Eh
   *** GEOMETRY OPTIMIZATION CONVERGED AFTER 46 ITERATIONS ***

 final structure:
================
16
 xtb: 6.7.1 (edcfbbe)
H           -3.61108164502545        3.48317712859379       -0.89560902647276
C           -0.24067997609548        3.39940050303984       -0.31896137483731
C           -2.65228068406536        3.08841525452014       -0.57452699025959
H           -1.26586721522367        0.34858029236419        0.81899088994543
H            0.75617250652521        1.71947479455628        0.57465207055610
C           -2.58102042337619        1.81543801738200       -0.02662647455748
C           -1.52558050115718        3.86111955497912       -0.71759952338485
C           -1.33925173243568        1.33831187172356        0.38163418107571
H           -3.47019456936157        1.21024950151598        0.08388729989248
C           -0.20422626508864        2.09487885318890        0.24477698240800
H           -1.59909437381430        4.85887451160761       -1.14728286870756
N            0.88753615521501        4.08978616636920       -0.45164281780349
H            0.71102114716849        5.01750405367014       -0.84235723375276
O            3.15601585793666        3.42637962623851        0.69131380097306
H            2.25867000691964        3.69091667700649        0.29783270962519
H            3.70746830595092        3.24108841011368       -0.07451940493029

          :  Hamiltonian                  GFN2-xTB          :
         :: gradient norm              0.000217990831 Eh/a0 ::
         :: HOMO-LUMO gap              2.980600606332 eV    ::
         :: SCC energy               -24.519149721748 Eh    ::
         :: -> dispersion             -0.012454127074 Eh    ::
         :: -> Gsolv                  -0.091671246205 Eh    ::
         :: repulsion energy           0.356303696495 Eh    ::

    * Orbital Energies and Occupations

         #    Occupation            Energy/Eh            Energy/eV
      -------------------------------------------------------------
         1        2.0000           -0.6364589             -17.3189
       ...           ...                  ...                  ...
        10        2.0000           -0.4717467             -12.8369
        11        2.0000           -0.4704797             -12.8024
        12        2.0000           -0.4540820             -12.3562
        13        2.0000           -0.4452705             -12.1164
        14        2.0000           -0.4382467             -11.9253
        15        2.0000           -0.4334852             -11.7957
        16        2.0000           -0.4026537             -10.9568
        17        2.0000           -0.3997639             -10.8781
        18        2.0000           -0.3888902             -10.5822
        19        2.0000           -0.3861263             -10.5070
        20        2.0000           -0.3657147              -9.9516
        21        2.0000           -0.3279519              -8.9240
        22        2.0000           -0.2905126              -7.9053 (HOMO)
        23                         -0.1809776              -4.9247 (LUMO)
        24                         -0.1567594              -4.2656
        25                         -0.0434974              -1.1836
        26                          0.1031445               2.8067
        27                          0.1413818               3.8472
        28                          0.1576077               4.2887
        29                          0.1670559               4.5458
        30                          0.2076687               5.6510
        31                          0.2163178               5.8863
        32                          0.2312588               6.2929
        33                          0.2745553               7.4710
       ...                                ...                  ...
        40                          0.7094482              19.3051
      -------------------------------------------------------------
                  HL-Gap            0.1095351 Eh            2.9806 eV

     #   Z          covCN         q      C6AA      α(0)
     1   1 H        0.925    -0.019     3.409     2.887
     2   6 C        2.889     0.077    26.270     8.403
     3   6 C        2.914    -0.049    29.227     8.865
     4   1 H        0.925    -0.013     3.295     2.839
     5   1 H        0.925    -0.014     3.305     2.843
     6   6 C        2.917    -0.086    30.153     9.005
     7   6 C        2.919    -0.094    30.374     9.038
     8   6 C        2.915    -0.049    29.216     8.864
     9   1 H        0.925    -0.017     3.370     2.871
    10   6 C        2.924    -0.088    30.195     9.011
    11   1 H        0.925    -0.046     4.003     3.129
    12   7 N        1.809    -0.561    36.389     8.937
    13   1 H        0.860     0.058     2.237     2.343
    14   8 O        1.601    -0.719    28.237     7.172
    15   1 H        0.823     0.293     0.740     1.350
    16   1 H        0.805     0.328     0.643     1.260

Wiberg/Mayer (AO) data.
largest (>0.10) Wiberg bond orders for each atom

     #   Z sym  total        # sym  WBO       # sym  WBO       # sym  WBO
 ---------------------------------------------------------------------------
     1   1 H    0.999 --     3 C    0.970
     2   6 C    3.982 --    12 N    1.422     7 C    1.234    10 C    1.232
     3   6 C    3.989 --     7 C    1.500     6 C    1.399     1 H    0.970
     4   1 H    0.999 --     8 C    0.971
     5   1 H    1.000 --    10 C    0.971
     6   6 C    3.972 --     3 C    1.399     8 C    1.380     9 H    0.973
     7   6 C    3.971 --     3 C    1.500     2 C    1.234    11 H    0.967
     8   6 C    3.990 --    10 C    1.522     6 C    1.380     4 H    0.971
     9   1 H    1.000 --     6 C    0.973
    10   6 C    3.980 --     8 C    1.522     2 C    1.232     5 H    0.971
    11   1 H    0.998 --     7 C    0.967
    12   7 N    2.870 --     2 C    1.422    13 H    0.971    15 H    0.126
    13   1 H    0.996 --    12 N    0.971
    14   8 O    1.739 --    16 H    0.892    15 H    0.783
    15   1 H    0.914 --    14 O    0.783    12 N    0.126
    16   1 H    0.893 --    14 O    0.892
 ---------------------------------------------------------------------------

molecular dipole:
                 x           y           z       tot (Debye)
 q only:       -0.153      -6.283      -0.276
   full:       -0.561      -6.105      -0.566      15.649

 projected vibrational frequencies (cm⁻¹)
eigval :       -0.00    -0.00    -0.00     0.00     0.00     0.00
eigval :       15.43    54.88   128.50   186.60   228.57   371.64
eigval :      427.29   463.21   506.83   521.10   589.63   630.45
eigval :      649.60   731.51   795.85   837.72   839.15   864.53
eigval :      899.72   906.63   960.57  1076.34  1104.87  1174.48
eigval :     1194.69  1201.09  1316.03  1364.00  1377.46  1471.45
eigval :     1505.39  1522.27  1539.40  1618.74  2421.05  2947.04
eigval :     2988.40  3000.22  3033.88  3050.04  3266.58  3623.85

   temp. (K)  partition function   enthalpy   heat capacity  entropy
                                   cal/mol     cal/K/mol   cal/K/mol   J/K/mol
 298.15  VIB   824.                 3729.393     24.292     22.943
         ROT  0.400E+06              888.752      2.981     28.614
         INT  0.330E+09             4618.145     27.273     51.557
         TR   0.112E+28             1481.254      4.968     39.988
         TOT                        6099.3988    32.2415    91.5448   383.0234

       T/K    H(0)-H(T)+PV         H(T)/Eh          T*S/Eh         G(T)/Eh
   ------------------------------------------------------------------------
    298.15    0.972001E-02    0.131389E+00    0.434959E-01    0.878935E-01
   ------------------------------------------------------------------------

         :::::::::::::::::::::::::::::::::::::::::::::::::::::
         ::                  THERMODYNAMIC                  ::
         :::::::::::::::::::::::::::::::::::::::::::::::::::::
         :: total free energy         -24.074952493422 Eh   ::
         ::.................................................::
         :: total energy              -24.162846023630 Eh   ::
         :: zero point energy           0.121669404909 Eh   ::
         :: G(RRHO) w/o ZPVE           -0.033775874702 Eh   ::
         :: G(RRHO) contrib.            0.087893530207 Eh   ::
         :::::::::::::::::::::::::::::::::::::::::::::::::::::

           -------------------------------------------------
          | TOTAL ENERGY              -24.162846023630 Eh   |
          | TOTAL ENTHALPY            -24.031456607968 Eh   |
          | TOTAL FREE ENERGY         -24.074952493422 Eh   |
          | GRADIENT NORM               0.000218167086 Eh/α |
          | HOMO-LUMO GAP               2.980601104611 eV   |
           -------------------------------------------------

 * finished run on 2025/10/17 at 21:54:32.048
normal termination of xtb
