   * xtb version 6.7.1 (edcfbbe) compiled by 'albert@albert-system' on 2024-07-22

   ID    Z sym.   atoms
    1    1 H      1, 4, 5, 9, 11, 13, 15, 16
    2    6 C      2, 3, 6-8, 10
    3    7 N      12
    4    8 O      14

          program call               : xtb tb_lite_results_shiftn0p25_gp664_b0_rot270_complex.xyz --ohess --chrg -1 --alpb water
      * Solvation model:               ALPB
        Solvent                        water
        Solvent mass                       1.8000E+01 g/mol
          :  Hamiltonian                  GFN2-xTB          :
 * total energy  :   -24.1567493 Eh     change       -0.9148842E-09 Eh
 * total energy  :   -24.1614881 Eh     change       -0.4738841E-02 Eh
 * total energy  :   -24.1618102 Eh     change       -0.3220444E-03 Eh
 * total energy  :   -24.1618605 Eh     change       -0.5034334E-04 Eh
 * total energy  :   -24.1619139 Eh     change       -0.5338352E-04 Eh
 * total energy  :   -24.1619412 Eh     change       -0.2730307E-04 Eh
 * total energy  :   -24.1619777 Eh     change       -0.3650060E-04 Eh
 * total energy  :   -24.1620036 Eh     change       -0.2591092E-04 Eh
 * total energy  :   -24.1620326 Eh     change       -0.2897489E-04 Eh
 * total energy  :   -24.1620331 Eh     change       -0.4673144E-06 Eh
 * total energy  :   -24.1627856 Eh     change       -0.1126091E-04 Eh
 * total energy  :   -24.1627952 Eh     change       -0.9634511E-05 Eh
 * total energy  :   -24.1628062 Eh     change       -0.1101210E-04 Eh
 * total energy  :   -24.1628138 Eh     change       -0.7558589E-05 Eh
 * total energy  :   -24.1628276 Eh     change       -0.1380767E-04 Eh
 * total energy  :   -24.1628329 Eh     change       -0.5335124E-05 Eh
 * total energy  :   -24.1628448 Eh     change       -0.1191891E-04 Eh
 * total energy  :   -24.1628540 Eh     change       -0.9186320E-05 Eh
 * total energy  :   -24.1628570 Eh     change       -0.2938552E-05 Eh
   *** GEOMETRY OPTIMIZATION CONVERGED AFTER 53 ITERATIONS ***

 final structure:
================
16
 xtb: 6.7.1 (edcfbbe)
H           -3.62566341648202        3.51428387284752       -0.85237769549410
C           -0.24811547153137        3.38484182923008       -0.32567838555298
C           -2.66668836912809        3.10367363693845       -0.55203111830167
H           -1.28972449166460        0.32466645680749        0.77162022274110
H            0.74367034892273        1.67811695733022        0.52214287028309
C           -2.60119239460705        1.82074006978678       -0.02706418453649
C           -1.53374302669614        3.86653676241291       -0.69813474273605
C           -1.35877251892000        1.32336866882882        0.35434054884387
H           -3.49534061910736        1.22351169255314        0.08623720528538
C           -0.21749078267638        2.06996564216940        0.21392508651104
H           -1.60250795086132        4.87247880527062       -1.10923347022827
N            0.88472948375414        4.06735418651263       -0.46170886871736
H            0.71014999932749        5.00397114503994       -0.83182145610142
O            3.16276592025244        3.46604680847523        0.69597194850364
H            2.25983583702373        3.70211754046983        0.29639575250902
H            3.72092544120035        3.28968848749078       -0.06638883853396

          :  Hamiltonian                  GFN2-xTB          :
         :: gradient norm              0.000853339311 Eh/a0 ::
         :: HOMO-LUMO gap              2.980513985679 eV    ::
         :: SCC energy               -24.519064941708 Eh    ::
         :: -> dispersion             -0.012434417780 Eh    ::
         :: -> Gsolv                  -0.091648466231 Eh    ::
         :: repulsion energy           0.356207981004 Eh    ::

    * Orbital Energies and Occupations

         #    Occupation            Energy/Eh            Energy/eV
      -------------------------------------------------------------
         1        2.0000           -0.6366074             -17.3230
       ...           ...                  ...                  ...
        10        2.0000           -0.4719144             -12.8414
        11        2.0000           -0.4705684             -12.8048
        12        2.0000           -0.4543001             -12.3621
        13        2.0000           -0.4454073             -12.1201
        14        2.0000           -0.4383163             -11.9272
        15        2.0000           -0.4334954             -11.7960
        16        2.0000           -0.4026748             -10.9573
        17        2.0000           -0.4000406             -10.8857
        18        2.0000           -0.3890212             -10.5858
        19        2.0000           -0.3861723             -10.5083
        20        2.0000           -0.3658289              -9.9547
        21        2.0000           -0.3280464              -8.9266
        22        2.0000           -0.2906357              -7.9086 (HOMO)
        23                         -0.1811038              -4.9281 (LUMO)
        24                         -0.1569405              -4.2706
        25                         -0.0437095              -1.1894
        26                          0.1040324               2.8309
        27                          0.1410251               3.8375
        28                          0.1576963               4.2911
        29                          0.1666801               4.5356
        30                          0.2076038               5.6492
        31                          0.2160315               5.8785
        32                          0.2310198               6.2864
        33                          0.2736505               7.4464
       ...                                ...                  ...
        40                          0.7091022              19.2957
      -------------------------------------------------------------
                  HL-Gap            0.1095319 Eh            2.9805 eV

     #   Z          covCN         q      C6AA      α(0)
     1   1 H        0.925    -0.019     3.406     2.886
     2   6 C        2.889     0.077    26.268     8.403
     3   6 C        2.914    -0.049    29.226     8.865
     4   1 H        0.925    -0.013     3.292     2.837
     5   1 H        0.925    -0.014     3.319     2.849
     6   6 C        2.917    -0.086    30.151     9.004
     7   6 C        2.919    -0.094    30.371     9.037
     8   6 C        2.915    -0.049    29.215     8.863
     9   1 H        0.925    -0.017     3.366     2.869
    10   6 C        2.924    -0.087    30.189     9.010
    11   1 H        0.925    -0.046     4.001     3.128
    12   7 N        1.809    -0.561    36.385     8.937
    13   1 H        0.860     0.058     2.238     2.344
    14   8 O        1.600    -0.720    28.244     7.172
    15   1 H        0.823     0.292     0.742     1.351
    16   1 H        0.805     0.328     0.642     1.259

Wiberg/Mayer (AO) data.
largest (>0.10) Wiberg bond orders for each atom

     #   Z sym  total        # sym  WBO       # sym  WBO       # sym  WBO
 ---------------------------------------------------------------------------
     1   1 H    0.999 --     3 C    0.970
     2   6 C    3.982 --    12 N    1.421     7 C    1.234    10 C    1.233
     3   6 C    3.989 --     7 C    1.500     6 C    1.399     1 H    0.970
     4   1 H    0.999 --     8 C    0.971
     5   1 H    1.000 --    10 C    0.971
     6   6 C    3.972 --     3 C    1.399     8 C    1.380     9 H    0.973
     7   6 C    3.971 --     3 C    1.500     2 C    1.234    11 H    0.967
     8   6 C    3.990 --    10 C    1.522     6 C    1.380     4 H    0.971
     9   1 H    1.000 --     6 C    0.973
    10   6 C    3.980 --     8 C    1.522     2 C    1.233     5 H    0.971
    11   1 H    0.998 --     7 C    0.967
    12   7 N    2.869 --     2 C    1.421    13 H    0.971    15 H    0.126
    13   1 H    0.996 --    12 N    0.971
    14   8 O    1.739 --    16 H    0.891    15 H    0.783
    15   1 H    0.915 --    14 O    0.783    12 N    0.126
    16   1 H    0.892 --    14 O    0.891
 ---------------------------------------------------------------------------

molecular dipole:
                 x           y           z       tot (Debye)
 q only:       -0.145      -6.280      -0.269
   full:       -0.552      -6.100      -0.551      15.630

 projected vibrational frequencies (cm⁻¹)
eigval :       -0.00    -0.00    -0.00     0.00     0.00     0.00
eigval :      -18.39    52.60    78.18   185.12   229.31   371.21
eigval :      426.38   462.87   506.57   513.66   589.48   631.31
eigval :      650.47   731.23   795.44   836.08   839.32   864.80
eigval :      898.64   905.68   960.35  1075.89  1104.91  1174.54
eigval :     1194.66  1201.03  1316.00  1363.77  1377.12  1471.41
eigval :     1504.56  1521.62  1539.17  1618.34  2414.12  2946.61
eigval :     2987.61  2999.94  3032.77  3049.16  3265.74  3631.28

   temp. (K)  partition function   enthalpy   heat capacity  entropy
                                   cal/mol     cal/K/mol   cal/K/mol   J/K/mol
 298.15  VIB  0.107E+04             3793.737     24.207     23.693
         ROT  0.402E+06              888.752      2.981     28.624
         INT  0.430E+09             4682.489     27.188     52.317
         TR   0.112E+28             1481.254      4.968     39.988
         TOT                        6163.7431    32.1563    92.3043   386.2010

       T/K    H(0)-H(T)+PV         H(T)/Eh          T*S/Eh         G(T)/Eh
   ------------------------------------------------------------------------
    298.15    0.982255E-02    0.131334E+00    0.438567E-01    0.874773E-01
   ------------------------------------------------------------------------

         :::::::::::::::::::::::::::::::::::::::::::::::::::::
         ::                  THERMODYNAMIC                  ::
         :::::::::::::::::::::::::::::::::::::::::::::::::::::
         :: total free energy         -24.075379700662 Eh   ::
         ::.................................................::
         :: total energy              -24.162856959567 Eh   ::
         :: zero point energy           0.121511440569 Eh   ::
         :: G(RRHO) w/o ZPVE           -0.034034181664 Eh   ::
         :: G(RRHO) contrib.            0.087477258904 Eh   ::
         :::::::::::::::::::::::::::::::::::::::::::::::::::::

           -------------------------------------------------
          | TOTAL ENERGY              -24.162856959567 Eh   |
          | TOTAL ENTHALPY            -24.031522969206 Eh   |
          | TOTAL FREE ENERGY         -24.075379700662 Eh   |
          | GRADIENT NORM               0.000852944494 Eh/α |
          | HOMO-LUMO GAP               2.980514532537 eV   |
           -------------------------------------------------

 * finished run on 2025/10/17 at 21:54:40.913
normal termination of xtb
