   * xtb version 6.7.1 (edcfbbe) compiled by 'albert@albert-system' on 2024-07-22

   ID    Z sym.   atoms
    1    1 H      1, 4, 5, 9, 11, 13
    2    6 C      2, 3, 6-8, 10
    3    7 N      12

          program call               : xtb tb_lite_results_shiftn0p25_gp664_b0_rot270_solute.xyz --ohess --chrg -1
          :  Hamiltonian                  GFN2-xTB          :
 * total energy  :   -18.9768515 Eh     change       -0.8346035E-09 Eh
 * total energy  :   -18.9795832 Eh     change       -0.2731701E-02 Eh
 * total energy  :   -18.9797580 Eh     change       -0.1747494E-03 Eh
 * total energy  :   -18.9797762 Eh     change       -0.1821071E-04 Eh
 * total energy  :   -18.9797787 Eh     change       -0.2487853E-05 Eh
   *** GEOMETRY OPTIMIZATION CONVERGED AFTER 5 ITERATIONS ***

 final structure:
================
13
 xtb: 6.7.1 (edcfbbe)
H           -3.59719330342556        3.38584005499876       -1.05870796686351
C           -0.26491294804425        3.45074363067384       -0.20799706113609
C           -2.64405545759561        3.03223384288160       -0.66361469256186
H           -1.25817159839764        0.32573094844733        0.80254545865166
H            0.71857875348368        1.77798949283490        0.73217335037682
C           -2.56654017521287        1.75272687274025       -0.12235556429645
C           -1.54722472176153        3.85300718351610       -0.70904592713169
C           -1.33596223419401        1.32543556811859        0.37570501896889
H           -3.43799701513113        1.10640884321947       -0.08893729626153
C           -0.22905905118596        2.12952015639682        0.33965850400277
H           -1.63762225966360        4.85076043218694       -1.13884154319230
N            0.82811057179618        4.17973827883808       -0.21664028783566
H            0.64616135748089        5.09939887527885       -0.63838400485570

          :  Hamiltonian                  GFN2-xTB          :
         :: gradient norm              0.000577179372 Eh/a0 ::
         :: HOMO-LUMO gap              2.773135705750 eV    ::
         :: SCC energy               -19.305293636778 Eh    ::
         :: -> dispersion             -0.010932909953 Eh    ::
         :: repulsion energy           0.325514939989 Eh    ::

    * Orbital Energies and Occupations

         #    Occupation            Energy/Eh            Energy/eV
      -------------------------------------------------------------
         1        2.0000           -0.4377077             -11.9106
       ...           ...                  ...                  ...
         6        2.0000           -0.3539987              -9.6328
         7        2.0000           -0.3285745              -8.9410
         8        2.0000           -0.3079369              -8.3794
         9        2.0000           -0.2919521              -7.9444
        10        2.0000           -0.2859620              -7.7814
        11        2.0000           -0.2734160              -7.4400
        12        2.0000           -0.2668211              -7.2606
        13        2.0000           -0.2409788              -6.5574
        14        2.0000           -0.2244780              -6.1084
        15        2.0000           -0.2190093              -5.9595
        16        2.0000           -0.2039950              -5.5510
        17        2.0000           -0.1458064              -3.9676
        18        2.0000           -0.1199244              -3.2633 (HOMO)
        19                         -0.0180135              -0.4902 (LUMO)
        20                          0.0099628               0.2711
        21                          0.1209478               3.2912
        22                          0.2896969               7.8831
        23                          0.2953906               8.0380
        24                          0.3180200               8.6538
        25                          0.3627349               9.8705
        26                          0.3672935               9.9946
        27                          0.3900114              10.6127
        28                          0.4442553              12.0888
        29                          0.5830852              15.8666
       ...                                ...                  ...
        34                          0.8719877              23.7280
      -------------------------------------------------------------
                  HL-Gap            0.1019109 Eh            2.7731 eV

     #   Z          covCN         q      C6AA      α(0)
     1   1 H        0.924    -0.051     4.123     3.175
     2   6 C        2.885     0.089    26.012     8.361
     3   6 C        2.912    -0.049    29.229     8.865
     4   1 H        0.925    -0.047     4.027     3.138
     5   1 H        0.925    -0.026     3.554     2.948
     6   6 C        2.915    -0.096    30.407     9.042
     7   6 C        2.917    -0.097    30.446     9.048
     8   6 C        2.913    -0.050    29.238     8.867
     9   1 H        0.925    -0.054     4.199     3.205
    10   6 C        2.923    -0.087    30.179     9.009
    11   1 H        0.925    -0.050     4.091     3.163
    12   7 N        1.781    -0.516    34.870     8.745
    13   1 H        0.859     0.035     2.529     2.491

Wiberg/Mayer (AO) data.
largest (>0.10) Wiberg bond orders for each atom

     #   Z sym  total        # sym  WBO       # sym  WBO       # sym  WBO
 ---------------------------------------------------------------------------
     1   1 H    0.997 --     3 C    0.968
     2   6 C    3.982 --    12 N    1.517    10 C    1.196     7 C    1.190
     3   6 C    3.984 --     7 C    1.524     6 C    1.379     1 H    0.968
     4   1 H    0.997 --     8 C    0.969
     5   1 H    0.999 --    10 C    0.971
     6   6 C    3.957 --     3 C    1.379     8 C    1.363     9 H    0.971
     7   6 C    3.967 --     3 C    1.524     2 C    1.190    11 H    0.967
                            12 N    0.102
     8   6 C    3.985 --    10 C    1.541     6 C    1.363     4 H    0.969
     9   1 H    0.997 --     6 C    0.971
    10   6 C    3.977 --     8 C    1.541     2 C    1.196     5 H    0.971
    11   1 H    0.998 --     7 C    0.967
    12   7 N    2.808 --     2 C    1.517    13 H    0.974     7 C    0.102
    13   1 H    0.998 --    12 N    0.974
 ---------------------------------------------------------------------------

molecular dipole:
                 x           y           z       tot (Debye)
 q only:        1.283      -5.955       0.368
   full:        0.784      -5.894       0.212      15.122

 projected vibrational frequencies (cm⁻¹)
eigval :       -0.00    -0.00     0.00     0.00     0.00     0.00
eigval :      182.03   371.62   402.54   452.25   495.98   585.95
eigval :      636.57   711.46   721.12   770.50   827.42   838.67
eigval :      899.05   902.69   951.51  1068.77  1098.16  1174.26
eigval :     1186.84  1204.58  1323.86  1375.53  1395.47  1491.18
eigval :     1521.02  1543.58  1637.41  2925.28  2943.51  2953.55
eigval :     2994.68  3022.87  3187.07

   temp. (K)  partition function   enthalpy   heat capacity  entropy
                                   cal/mol     cal/K/mol   cal/K/mol   J/K/mol
 298.15  VIB   4.00                 1739.083     16.255      8.587
         ROT  0.161E+06              888.752      2.981     26.808
         INT  0.644E+06             2627.836     19.236     35.395
         TR   0.855E+27             1481.254      4.968     39.455
         TOT                        4109.0895    24.2045    74.8504   313.1739

       T/K    H(0)-H(T)+PV         H(T)/Eh          T*S/Eh         G(T)/Eh
   ------------------------------------------------------------------------
    298.15    0.654825E-02    0.106325E+00    0.355638E-01    0.707612E-01
   ------------------------------------------------------------------------

         :::::::::::::::::::::::::::::::::::::::::::::::::::::
         ::                  THERMODYNAMIC                  ::
         :::::::::::::::::::::::::::::::::::::::::::::::::::::
         :: total free energy         -18.909017449288 Eh   ::
         ::.................................................::
         :: total energy              -18.979778696790 Eh   ::
         :: zero point energy           0.099776815194 Eh   ::
         :: G(RRHO) w/o ZPVE           -0.029015567692 Eh   ::
         :: G(RRHO) contrib.            0.070761247502 Eh   ::
         :::::::::::::::::::::::::::::::::::::::::::::::::::::

           -------------------------------------------------
          | TOTAL ENERGY              -18.979778696790 Eh   |
          | TOTAL ENTHALPY            -18.873453630678 Eh   |
          | TOTAL FREE ENERGY         -18.909017449288 Eh   |
          | GRADIENT NORM               0.000577043818 Eh/α |
          | HOMO-LUMO GAP               2.773135474523 eV   |
           -------------------------------------------------

 * finished run on 2025/10/17 at 21:54:41.440
normal termination of xtb
