   * xtb version 6.7.1 (edcfbbe) compiled by 'albert@albert-system' on 2024-07-22

   ID    Z sym.   atoms
    1    7 N      1, 3
    2    6 C      2
    3    1 H      4

          program call               : xtb tb_lite_results_shiftn0p25.json_gp33_b0_rot0.xyz --charge -1 --alpb water --ohess
      * Solvation model:               ALPB
        Solvent                        water
        Solvent mass                       1.8000E+01 g/mol
          :  Hamiltonian                  GFN2-xTB          :
 * total energy  :    -8.7367186 Eh     change       -0.1385558E-12 Eh
 * total energy  :    -8.7541181 Eh     change       -0.1739949E-01 Eh
 * total energy  :    -8.7546067 Eh     change       -0.4886238E-03 Eh
 * total energy  :    -8.7550559 Eh     change       -0.4492070E-03 Eh
 * total energy  :    -8.7554060 Eh     change       -0.3500449E-03 Eh
 * total energy  :    -8.7556397 Eh     change       -0.2336723E-03 Eh
 * total energy  :    -8.7557080 Eh     change       -0.6830050E-04 Eh
 * total energy  :    -8.7557171 Eh     change       -0.9132087E-05 Eh
 * total energy  :    -8.7557223 Eh     change       -0.5163634E-05 Eh
 * total energy  :    -8.7557238 Eh     change       -0.1564612E-05 Eh
   *** GEOMETRY OPTIMIZATION CONVERGED AFTER 10 ITERATIONS ***

 final structure:
================
4
 xtb: 6.7.1 (edcfbbe)
N           -8.58855793968775       -3.29956421481408       -1.82779294413318
C           -7.62346403021505       -2.63150516741947       -1.76827859465626
N           -6.67392029877930       -1.79522437621254       -1.80272417489662
H           -5.83915973131790       -2.09787024155391       -1.31416028631395

          :  Hamiltonian                  GFN2-xTB          :
         :: gradient norm              0.000608777279 Eh/a0 ::
         :: HOMO-LUMO gap              5.274769712512 eV    ::
         :: SCC energy                -8.900039051623 Eh    ::
         :: -> dispersion             -0.001479643453 Eh    ::
         :: -> Gsolv                  -0.117811758309 Eh    ::
         :: repulsion energy           0.144315225698 Eh    ::

    * Orbital Energies and Occupations

         #    Occupation            Energy/Eh            Energy/eV
      -------------------------------------------------------------
         1        2.0000           -0.5631558             -15.3242
         2        2.0000           -0.5426568             -14.7664
         3        2.0000           -0.4763909             -12.9633
         4        2.0000           -0.4092126             -11.1352
         5        2.0000           -0.4087892             -11.1237
         6        2.0000           -0.3532220              -9.6117
         7        2.0000           -0.3258916              -8.8680
         8        2.0000           -0.2982588              -8.1160 (HOMO)
         9                         -0.1044146              -2.8413 (LUMO)
        10                         -0.0687530              -1.8709
        11                          0.1843511               5.0164
        12                          0.3766686              10.2497
        13                          1.2249133              33.3316
      -------------------------------------------------------------
                  HL-Gap            0.1938442 Eh            5.2748 eV

     #   Z          covCN         q      C6AA      α(0)
     1   7 N        0.912    -0.654    38.459     8.969
     2   6 C        1.821     0.143    27.691     8.502
     3   7 N        1.772    -0.581    37.034     9.011
     4   1 H        0.860     0.092     1.874     2.144

Wiberg/Mayer (AO) data.
largest (>0.10) Wiberg bond orders for each atom

     #   Z sym  total        # sym  WBO       # sym  WBO       # sym  WBO
 ---------------------------------------------------------------------------
     1   7 N    2.781 --     2 C    2.385     3 N    0.355
     2   6 C    3.948 --     1 N    2.385     3 N    1.551
     3   7 N    2.844 --     2 C    1.551     4 H    0.938     1 N    0.355
     4   1 H    0.992 --     3 N    0.938
 ---------------------------------------------------------------------------

molecular dipole:
                 x           y           z       tot (Debye)
 q only:       14.866       4.973       3.532
   full:       15.249       4.942       3.703      41.817

 projected vibrational frequencies (cm⁻¹)
eigval :       -0.00    -0.00     0.00     0.00     0.00     0.00
eigval :      448.00   491.10  1057.54  1288.07  2345.02  3348.82

   temp. (K)  partition function   enthalpy   heat capacity  entropy
                                   cal/mol     cal/K/mol   cal/K/mol   J/K/mol
 298.15  VIB   1.26                  337.373      3.111      1.586
         ROT  0.298E+04              888.752      2.981     18.880
         INT  0.375E+04             1226.126      6.091     20.466
         TR   0.254E+27             1481.254      4.968     37.046
         TOT                        2707.3794    11.0596    57.5120   240.6302

       T/K    H(0)-H(T)+PV         H(T)/Eh          T*S/Eh         G(T)/Eh
   ------------------------------------------------------------------------
    298.15    0.431448E-02    0.247691E-01    0.273258E-01   -0.255665E-02
   ------------------------------------------------------------------------

         :::::::::::::::::::::::::::::::::::::::::::::::::::::
         ::                  THERMODYNAMIC                  ::
         :::::::::::::::::::::::::::::::::::::::::::::::::::::
         :: total free energy          -8.758280479873 Eh   ::
         ::.................................................::
         :: total energy               -8.755723825559 Eh   ::
         :: zero point energy           0.020454664680 Eh   ::
         :: G(RRHO) w/o ZPVE           -0.023011318993 Eh   ::
         :: G(RRHO) contrib.           -0.002556654313 Eh   ::
         :::::::::::::::::::::::::::::::::::::::::::::::::::::

           -------------------------------------------------
          | TOTAL ENERGY               -8.755723825559 Eh   |
          | TOTAL ENTHALPY             -8.730954677114 Eh   |
          | TOTAL FREE ENERGY          -8.758280479873 Eh   |
          | GRADIENT NORM               0.000608770472 Eh/α |
          | HOMO-LUMO GAP               5.274769676483 eV   |
           -------------------------------------------------

 * finished run on 2025/10/17 at 21:52:48.424
