                         Program Version 5.0.4 -  RELEASE  -
|  1> !OPT PBE def2-TZVP CPCM(water)
|  2>
|  3> *xyz -1 1
|  4> C     -5.196236   -6.326544    2.965507
|  5> C     -5.017208   -5.015190    3.587202
|  6> C     -6.118016   -7.330911    3.561764
|  7> C     -4.464407   -6.654717    1.741885
|  8> C     -4.112277   -4.038982    2.988327
|  9> H     -5.562992   -4.739431    4.477838
| 10> C     -3.394921   -4.390580    1.783250
| 11> H     -3.997322   -3.057008    3.427246
| 12> C     -3.566100   -5.674398    1.141067
| 13> O     -2.646634   -3.543072    1.254524
| 14> H     -4.589301   -7.613315    1.259811
| 15> H     -6.606122   -6.953260    4.466156
| 16> H     -6.903570   -7.602481    2.848838
| 17> H     -5.571184   -8.239799    3.833715
| 18> H     -3.057448   -5.893929    0.212047
| 19> *
| 20>
| 21>                          ****END OF INPUT****
 Total Charge           Charge          ....   -1
 Multiplicity           Mult            ....    1
 Number of Electrons    NEL             ....   58
FINAL SINGLE POINT ENERGY      -345.988241628766
FINAL SINGLE POINT ENERGY      -346.005395065508
FINAL SINGLE POINT ENERGY      -346.007714208498
FINAL SINGLE POINT ENERGY      -346.007830095613
FINAL SINGLE POINT ENERGY      -346.007891178009
FINAL SINGLE POINT ENERGY      -346.007898765040
FINAL SINGLE POINT ENERGY      -346.007900355035
                    ***********************HURRAY********************

CARTESIAN COORDINATES (ANGSTROEM)
---------------------------------
  C     -5.189689   -6.314193    2.947580
  C     -4.993686   -5.044348    3.517823
  C     -6.119077   -7.332065    3.563581
  C     -4.469907   -6.587782    1.768360
  C     -4.134648   -4.097495    2.955772
  H     -5.535004   -4.789835    4.436557
  C     -3.386211   -4.349760    1.754049
  H     -4.012768   -3.120337    3.435455
  C     -3.607630   -5.657237    1.190964
  O     -2.584523   -3.482638    1.224669
  H     -4.591321   -7.565586    1.287496
  H     -6.596745   -6.930747    4.469454
  H     -6.924273   -7.632719    2.872285
  H     -5.591513   -8.256947    3.852083
  H     -3.066741   -5.911929    0.273049

 Multiplicity           Mult            ....    1
 Number of Electrons    NEL             ....   58
 Basis Dimension        Dim             ....  290

ORBITAL ENERGIES
----------------

  NO   OCC          E(Eh)            E(eV)
   0   2.0000     -18.656243      -507.6622
   1   2.0000      -9.897279      -269.3187
   2   2.0000      -9.864021      -268.4137
   3   2.0000      -9.860886      -268.3284
   4   2.0000      -9.860847      -268.3273
   5   2.0000      -9.859979      -268.3037
   6   2.0000      -9.847905      -267.9751
   7   2.0000      -9.846431      -267.9350
   8   2.0000      -0.853173       -23.2160
   9   2.0000      -0.738780       -20.1032
  10   2.0000      -0.655312       -17.8320
  11   2.0000      -0.642666       -17.4878
  12   2.0000      -0.574902       -15.6439
  13   2.0000      -0.515599       -14.0302
  14   2.0000      -0.486007       -13.2249
  15   2.0000      -0.406361       -11.0576
  16   2.0000      -0.389953       -10.6112
  17   2.0000      -0.371498       -10.1090
  18   2.0000      -0.355494        -9.6735
  19   2.0000      -0.338859        -9.2208
  20   2.0000      -0.323127        -8.7927
  21   2.0000      -0.321314        -8.7434
  22   2.0000      -0.311845        -8.4857
  23   2.0000      -0.283989        -7.7277
  24   2.0000      -0.269548        -7.3348
  25   2.0000      -0.245038        -6.6678
  26   2.0000      -0.205197        -5.5837
  27   2.0000      -0.158306        -4.3077
  28   2.0000      -0.137677        -3.7464
  29   0.0000      -0.018678        -0.5082
  30   0.0000       0.010043         0.2733
  31   0.0000       0.039947         1.0870
  32   0.0000       0.060408         1.6438
  33   0.0000       0.070567         1.9202

MULLIKEN ATOMIC CHARGES
-----------------------
   0 C :    0.130511
   1 C :   -0.240509
   2 C :   -0.404366
   3 C :   -0.242673
   4 C :   -0.273122
   5 H :    0.104214
   6 C :    0.199671
   7 H :    0.070135
   8 C :   -0.261789
   9 O :   -0.626486
  10 H :    0.102408
  11 H :    0.127913
  12 H :    0.121571
  13 H :    0.121693
  14 H :    0.070830
Sum of atomic charges:   -1.0000000

LOEWDIN ATOMIC CHARGES
----------------------
   0 C :   -0.236758
   1 C :   -0.179097
   2 C :   -0.291768
   3 C :   -0.173206
   4 C :   -0.201880
   5 H :    0.142011
   6 C :   -0.442711
   7 H :    0.130335
   8 C :   -0.196832
   9 O :   -0.203193
  10 H :    0.142879
  11 H :    0.128109
  12 H :    0.125645
  13 H :    0.125631
  14 H :    0.130834

  Mayer bond orders larger than 0.100000
B(  0-C ,  1-C ) :   1.3428 B(  0-C ,  2-C ) :   0.9329 B(  0-C ,  3-C ) :   1.2970
B(  1-C ,  4-C ) :   1.3781 B(  1-C ,  5-H ) :   0.9614 B(  2-C , 11-H ) :   0.9830
B(  2-C , 12-H ) :   0.9591 B(  2-C , 13-H ) :   0.9582 B(  3-C ,  8-C ) :   1.3884
B(  3-C , 10-H ) :   0.9785 B(  4-C ,  6-C ) :   1.1891 B(  4-C ,  7-H ) :   0.9863
B(  6-C ,  8-C ) :   1.1750 B(  6-C ,  9-O ) :   1.7122 B(  8-C , 14-H ) :   0.9852

FINAL SINGLE POINT ENERGY      -346.007900570998

DIPOLE MOMENT
-------------
                                X             Y             Z
Electronic contribution:      3.58605       3.88899      -2.39205
Nuclear contribution   :     -5.78077      -6.30333       3.82800
                        -----------------------------------------
Total Dipole Moment    :     -2.19472      -2.41434       1.43595
                        -----------------------------------------
Magnitude (a.u.)       :      3.56480
Magnitude (Debye)      :      9.06099

Rotational constants in cm-1:     0.184774     0.048968     0.038992
Rotational constants in MHz :  5539.390937  1468.031130  1168.942670

                             ****ORCA TERMINATED NORMALLY****
TOTAL RUN TIME: 0 days 0 hours 7 minutes 56 seconds 790 msec
