   * xtb version 6.7.1 (edcfbbe) compiled by 'albert@albert-system' on 2024-07-22

   ID    Z sym.   atoms
    1    6 C      1, 2, 6, 9, 11
    2    1 H      3-5, 7, 8, 10, 13-15
    3    8 O      12

          program call               : xtb xyz.xyz --charge -1 --ohess
          :  Hamiltonian                  GFN2-xTB          :
 * total energy  :   -19.5092223 Eh     change       -0.7434764E-10 Eh
 * total energy  :   -19.5183598 Eh     change       -0.9137476E-02 Eh
 * total energy  :   -19.5200594 Eh     change       -0.1699591E-02 Eh
 * total energy  :   -19.5203956 Eh     change       -0.3361492E-03 Eh
 * total energy  :   -19.5207111 Eh     change       -0.3155699E-03 Eh
 * total energy  :   -19.5208878 Eh     change       -0.1766734E-03 Eh
 * total energy  :   -19.5211453 Eh     change       -0.2574569E-03 Eh
 * total energy  :   -19.5214132 Eh     change       -0.2679613E-03 Eh
 * total energy  :   -19.5217498 Eh     change       -0.3365879E-03 Eh
 * total energy  :   -19.5219796 Eh     change       -0.2297775E-03 Eh
 * total energy  :   -19.5226334 Eh     change       -0.1453307E-03 Eh
 * total energy  :   -19.5227118 Eh     change       -0.7832418E-04 Eh
 * total energy  :   -19.5227556 Eh     change       -0.4379402E-04 Eh
 * total energy  :   -19.5227623 Eh     change       -0.6778652E-05 Eh
 * total energy  :   -19.5227834 Eh     change       -0.2111653E-04 Eh
 * total energy  :   -19.5227823 Eh     change        0.1144985E-05 Eh
 * total energy  :   -19.5227877 Eh     change       -0.5397642E-05 Eh
 * total energy  :   -19.5227882 Eh     change       -0.4887241E-06 Eh
 * total energy  :   -19.5227903 Eh     change       -0.2139389E-05 Eh
   *** GEOMETRY OPTIMIZATION CONVERGED AFTER 21 ITERATIONS ***

 final structure:
================
15
 xtb: 6.7.1 (edcfbbe)
C           -4.88098805363207       -2.74001099859107        2.26019292187908
C           -6.05283238961360       -3.20772983556668        3.06918975325271
H           -4.73164901082215       -1.65024790083774        2.31867784712113
H           -3.93397250213977       -3.20707420084962        2.57290603869725
H           -5.06637045469771       -3.00361311608301        1.22051702386833
C           -7.12568384015264       -3.83459667579556        2.51389736281484
H           -6.01507053161057       -3.02162712125904        4.13897715925770
H           -8.21991703357290       -3.64617659037295        4.40780533614353
C           -8.23834228274227       -4.27133702294367        3.50903022458861
H           -9.20964299950630       -4.14625786648147        3.01968109079023
C           -8.05802309655414       -5.73602256143539        3.89392306473183
O           -7.30973493300592       -4.11612479643948        1.28989742383745
H           -7.10622852156615       -5.87201216036932        4.40649940948312
H           -8.86084732943695       -6.09034878442057        4.54932842762643
H           -8.04866902094683       -6.34628736855443        2.99279991590781

          :  Hamiltonian                  GFN2-xTB          :
         :: gradient norm              0.000390866909 Eh/a0 ::
         :: HOMO-LUMO gap              4.557974046628 eV    ::
         :: SCC energy               -19.775842026379 Eh    ::
         :: -> dispersion             -0.009523154235 Eh    ::
         :: repulsion energy           0.253051695988 Eh    ::

    * Orbital Energies and Occupations

         #    Occupation            Energy/Eh            Energy/eV
      -------------------------------------------------------------
         1        2.0000           -0.4473339             -12.1726
       ...           ...                  ...                  ...
         6        2.0000           -0.3416155              -9.2958
         7        2.0000           -0.3369753              -9.1696
         8        2.0000           -0.3148238              -8.5668
         9        2.0000           -0.3050580              -8.3010
        10        2.0000           -0.3002204              -8.1694
        11        2.0000           -0.2941895              -8.0053
        12        2.0000           -0.2813475              -7.6559
        13        2.0000           -0.2601957              -7.0803
        14        2.0000           -0.2423376              -6.5943
        15        2.0000           -0.2265400              -6.1645
        16        2.0000           -0.2251153              -6.1257
        17        2.0000           -0.1304904              -3.5508
        18        2.0000           -0.1048862              -2.8541 (HOMO)
        19                          0.0626162               1.7039 (LUMO)
        20                          0.2646302               7.2010
        21                          0.3063205               8.3354
        22                          0.3076481               8.3715
        23                          0.3152551               8.5785
        24                          0.3354496               9.1280
        25                          0.3464031               9.4261
        26                          0.3594520               9.7812
        27                          0.3777996              10.2805
        28                          0.3954837              10.7617
        29                          0.4080040              11.1024
       ...                                ...                  ...
        33                          0.8439393              22.9648
      -------------------------------------------------------------
                  HL-Gap            0.1675024 Eh            4.5580 eV

     #   Z          covCN         q      C6AA      α(0)
     1   6 C        3.751    -0.059    21.692     6.642
     2   6 C        2.890    -0.179    32.677     9.372
     3   1 H        0.923    -0.036     3.769     3.036
     4   1 H        0.923    -0.036     3.760     3.033
     5   1 H        0.925     0.019     2.752     2.594
     6   6 C        2.813     0.158    24.573     8.122
     7   1 H        0.925    -0.074     4.735     3.403
     8   1 H        0.924    -0.023     3.480     2.918
     9   6 C        3.801    -0.063    21.718     6.635
    10   1 H        0.924    -0.003     3.114     2.759
    11   6 C        3.751    -0.076    22.007     6.690
    12   8 O        0.857    -0.647    27.312     7.007
    13   1 H        0.925     0.009     2.900     2.663
    14   1 H        0.924    -0.016     3.345     2.860
    15   1 H        0.925     0.025     2.655     2.548

Wiberg/Mayer (AO) data.
largest (>0.10) Wiberg bond orders for each atom

     #   Z sym  total        # sym  WBO       # sym  WBO       # sym  WBO
 ---------------------------------------------------------------------------
     1   6 C    3.987 --     2 C    1.023     5 H    0.987     4 H    0.978
                             3 H    0.978
     2   6 C    3.846 --     6 C    1.584     1 C    1.023     7 H    0.968
                            12 O    0.237
     3   1 H    0.998 --     1 C    0.978
     4   1 H    0.999 --     1 C    0.978
     5   1 H    1.000 --     1 C    0.987
     6   6 C    3.967 --     2 C    1.584    12 O    1.414     9 C    0.926
     7   1 H    0.995 --     2 C    0.968
     8   1 H    0.999 --     9 C    0.980
     9   6 C    3.974 --    11 C    1.012     8 H    0.980    10 H    0.980
                             6 C    0.926
    10   1 H    1.000 --     9 C    0.980
    11   6 C    3.997 --     9 C    1.012    13 H    0.990    15 H    0.989
                            14 H    0.986
    12   8 O    1.747 --     6 C    1.414     2 C    0.237
    13   1 H    1.000 --    11 C    0.990
    14   1 H    0.999 --    11 C    0.986
    15   1 H    0.999 --    11 C    0.989
 ---------------------------------------------------------------------------

molecular dipole:
                 x           y           z       tot (Debye)
 q only:       12.951       7.210      -4.081
   full:       12.996       7.229      -3.755      38.986

 projected vibrational frequencies (cm⁻¹)
eigval :       -0.00    -0.00    -0.00    -0.00     0.00     0.00
eigval :       21.50   146.75   165.01   201.59   237.72   270.69
eigval :      409.64   545.42   598.01   678.06   811.78   822.82
eigval :      985.16  1028.00  1043.36  1053.16  1078.89  1106.05
eigval :     1202.80  1245.47  1291.17  1374.83  1388.90  1411.65
eigval :     1488.48  1503.74  1506.57  1516.80  1526.62  1699.43
eigval :     2796.87  2847.88  2913.32  2916.98  2939.57  2963.54
eigval :     3004.05  3016.89  3021.69

   temp. (K)  partition function   enthalpy   heat capacity  entropy
                                   cal/mol     cal/K/mol   cal/K/mol   J/K/mol
 298.15  VIB   178.                 3063.273     19.125     18.523
         ROT  0.167E+06              888.752      2.981     26.877
         INT  0.297E+08             3952.025     22.106     45.400
         TR   0.760E+27             1481.254      4.968     39.220
         TOT                        5433.2791    27.0742    84.6204   354.0519

       T/K    H(0)-H(T)+PV         H(T)/Eh          T*S/Eh         G(T)/Eh
   ------------------------------------------------------------------------
    298.15    0.865848E-02    0.133458E+00    0.402059E-01    0.932525E-01
   ------------------------------------------------------------------------

         :::::::::::::::::::::::::::::::::::::::::::::::::::::
         ::                  THERMODYNAMIC                  ::
         :::::::::::::::::::::::::::::::::::::::::::::::::::::
         :: total free energy         -19.429537849562 Eh   ::
         ::.................................................::
         :: total energy              -19.522790330392 Eh   ::
         :: zero point energy           0.124799899509 Eh   ::
         :: G(RRHO) w/o ZPVE           -0.031547418680 Eh   ::
         :: G(RRHO) contrib.            0.093252480829 Eh   ::
         :::::::::::::::::::::::::::::::::::::::::::::::::::::

           -------------------------------------------------
          | TOTAL ENERGY              -19.522790330392 Eh   |
          | TOTAL ENTHALPY            -19.389331949471 Eh   |
          | TOTAL FREE ENERGY         -19.429537849562 Eh   |
          | GRADIENT NORM               0.000390691789 Eh/α |
          | HOMO-LUMO GAP               4.557971611145 eV   |
           -------------------------------------------------

 * finished run on 2025/10/18 at 03:58:26.149
