   * xtb version 6.7.1 (edcfbbe) compiled by 'albert@albert-system' on 2024-07-22

   ID    Z sym.   atoms
    1    6 C      1, 2
    2    9 F      3-5
    3    8 O      6, 7

          program call               : xtb tb_lite_results_shiftn0p3_gp15_b0_rot90_solute.xyz --ohess --chrg -1
          :  Hamiltonian                  GFN2-xTB          :
 * total energy  :   -26.7894128 Eh     change       -0.5184475E-10 Eh
 * total energy  :   -26.8297253 Eh     change       -0.4031251E-01 Eh
 * total energy  :   -26.8328407 Eh     change       -0.3115477E-02 Eh
 * total energy  :   -26.8339641 Eh     change       -0.1123386E-02 Eh
 * total energy  :   -26.8362547 Eh     change       -0.2290547E-02 Eh
 * total energy  :   -26.8414553 Eh     change       -0.5200652E-02 Eh
 * total energy  :   -26.8473682 Eh     change       -0.5912836E-02 Eh
 * total energy  :   -26.8601243 Eh     change       -0.1275615E-01 Eh
 * total energy  :   -26.7891576 Eh     change        0.7096667E-01 Eh
 * total energy  :   -26.8706710 Eh     change       -0.8151335E-01 Eh
 * total energy  :   -26.8779558 Eh     change        0.7228725E-03 Eh
 * total energy  :   -26.8795465 Eh     change       -0.1590682E-02 Eh
 * total energy  :   -26.8796151 Eh     change       -0.6864293E-04 Eh
 * total energy  :   -26.8796481 Eh     change       -0.3295089E-04 Eh
 * total energy  :   -26.8796628 Eh     change       -0.1474573E-04 Eh
 * total energy  :   -26.8788338 Eh     change        0.8289925E-03 Eh
 * total energy  :   -26.8800073 Eh     change       -0.1173493E-02 Eh
 * total energy  :   -26.8800166 Eh     change       -0.9266273E-05 Eh
 * total energy  :   -26.8800175 Eh     change       -0.8943722E-06 Eh
   *** GEOMETRY OPTIMIZATION CONVERGED AFTER 25 ITERATIONS ***

 final structure:
================
7
 xtb: 6.7.1 (edcfbbe)
C           -1.55137430397191       -0.14712679672763        0.45474247605202
C           -2.43402293288969        1.18877415969259        0.05053345046754
F           -2.17994496693786       -1.30838327687916        0.12253858875571
F           -0.33949560855826       -0.21578127380523       -0.15171684032201
F           -1.28746601250938       -0.25550474123635        1.78142154675422
O           -3.19587142051860        1.53426488623459        0.93724161364060
O           -2.18290981951054        1.59680305463590       -1.07034082505592

          :  Hamiltonian                  GFN2-xTB          :
         :: gradient norm              0.000266907055 Eh/a0 ::
         :: HOMO-LUMO gap              5.301743459846 eV    ::
         :: SCC energy               -26.981021663903 Eh    ::
         :: -> dispersion             -0.004089975277 Eh    ::
         :: repulsion energy           0.101004174716 Eh    ::

    * Orbital Energies and Occupations

         #    Occupation            Energy/Eh            Energy/eV
      -------------------------------------------------------------
         1        2.0000           -0.7046353             -19.1741
       ...           ...                  ...                  ...
         9        2.0000           -0.4435621             -12.0699
        10        2.0000           -0.3995666             -10.8728
        11        2.0000           -0.3786504             -10.3036
        12        2.0000           -0.3762175             -10.2374
        13        2.0000           -0.3693013             -10.0492
        14        2.0000           -0.3640603              -9.9066
        15        2.0000           -0.3627918              -9.8721
        16        2.0000           -0.3616849              -9.8419
        17        2.0000           -0.3577836              -9.7358
        18        2.0000           -0.3438784              -9.3574
        19        2.0000           -0.2540835              -6.9140
        20        2.0000           -0.2426794              -6.6036
        21        2.0000           -0.2216945              -6.0326 (HOMO)
        22                         -0.0268590              -0.7309 (LUMO)
        23                          0.1534349               4.1752
        24                          0.2083013               5.6682
        25                          0.2251935               6.1278
        26                          0.2937158               7.9924
        27                          0.5718026              15.5595
        28                          0.9274046              25.2360
      -------------------------------------------------------------
                  HL-Gap            0.1948355 Eh            5.3017 eV

     #   Z          covCN         q      C6AA      α(0)
     1   6 C        3.300     0.400    18.962     6.971
     2   6 C        2.660     0.368    20.758     7.454
     3   9 F        0.788    -0.246    11.722     4.044
     4   9 F        0.789    -0.240    11.661     4.034
     5   9 F        0.789    -0.241    11.663     4.034
     6   8 O        0.856    -0.521    24.252     6.603
     7   8 O        0.856    -0.521    24.251     6.602

Wiberg/Mayer (AO) data.
largest (>0.10) Wiberg bond orders for each atom

     #   Z sym  total        # sym  WBO       # sym  WBO       # sym  WBO
 ---------------------------------------------------------------------------
     1   6 C    3.667 --     4 F    0.934     5 F    0.933     3 F    0.927
                             2 C    0.725
     2   6 C    3.951 --     7 O    1.588     6 O    1.588     1 C    0.725
     3   9 F    1.037 --     1 C    0.927
     4   9 F    1.044 --     1 C    0.934
     5   9 F    1.044 --     1 C    0.933
     6   8 O    1.939 --     2 C    1.588     7 O    0.260
     7   8 O    1.939 --     2 C    1.588     6 O    0.260
 ---------------------------------------------------------------------------

molecular dipole:
                 x           y           z       tot (Debye)
 q only:        4.179      -1.543      -0.288
   full:        4.289      -1.715      -0.237      11.756

 projected vibrational frequencies (cm⁻¹)
eigval :       -0.00    -0.00    -0.00    -0.00     0.00     0.00
eigval :        3.42   161.16   185.83   304.20   399.19   452.67
eigval :      530.72   622.36   692.53   715.13  1009.61  1042.27
eigval :     1121.03  1297.05  1914.70

   temp. (K)  partition function   enthalpy   heat capacity  entropy
                                   cal/mol     cal/K/mol   cal/K/mol   J/K/mol
 298.15  VIB   408.                 2387.862     14.162     15.994
         ROT  0.198E+06              888.752      2.981     27.220
         INT  0.808E+08             3276.615     17.143     43.214
         TR   0.116E+28             1481.254      4.968     40.065
         TOT                        4757.8684    22.1108    83.2784   348.4367

       T/K    H(0)-H(T)+PV         H(T)/Eh          T*S/Eh         G(T)/Eh
   ------------------------------------------------------------------------
    298.15    0.758215E-02    0.313932E-01    0.395682E-01   -0.817499E-02
   ------------------------------------------------------------------------

         :::::::::::::::::::::::::::::::::::::::::::::::::::::
         ::                  THERMODYNAMIC                  ::
         :::::::::::::::::::::::::::::::::::::::::::::::::::::
         :: total free energy         -26.888192482958 Eh   ::
         ::.................................................::
         :: total energy              -26.880017489187 Eh   ::
         :: zero point energy           0.023811098782 Eh   ::
         :: G(RRHO) w/o ZPVE           -0.031986092553 Eh   ::
         :: G(RRHO) contrib.           -0.008174993771 Eh   ::
         :::::::::::::::::::::::::::::::::::::::::::::::::::::

           -------------------------------------------------
          | TOTAL ENERGY              -26.880017489187 Eh   |
          | TOTAL ENTHALPY            -26.848624244413 Eh   |
          | TOTAL FREE ENERGY         -26.888192482958 Eh   |
          | GRADIENT NORM               0.000266971334 Eh/α |
          | HOMO-LUMO GAP               5.301743938163 eV   |
           -------------------------------------------------

 * finished run on 2025/10/18 at 18:58:58.968
normal termination of xtb
