   * xtb version 6.7.1 (edcfbbe) compiled by 'albert@albert-system' on 2024-07-22

   ID    Z sym.   atoms
    1    6 C      1, 2
    2    9 F      3-5
    3    8 O      6-8
    4    1 H      9, 10

          program call               : xtb tb_lite_results_shiftn0p3_gp15_b0_rot90_complex.xyz --ohess --chrg -1 --alpb water
      * Solvation model:               ALPB
        Solvent                        water
        Solvent mass                       1.8000E+01 g/mol
          :  Hamiltonian                  GFN2-xTB          :
 * total energy  :   -31.9774600 Eh     change       -0.2860645E-10 Eh
 * total energy  :   -32.0204493 Eh     change       -0.4298925E-01 Eh
 * total energy  :   -32.0155246 Eh     change        0.4924636E-02 Eh
 * total energy  :   -32.0239910 Eh     change       -0.8466388E-02 Eh
 * total energy  :   -32.0258012 Eh     change       -0.1810188E-02 Eh
 * total energy  :   -32.0268234 Eh     change       -0.1022178E-02 Eh
 * total energy  :   -32.0273034 Eh     change       -0.4799897E-03 Eh
 * total energy  :   -32.0277235 Eh     change       -0.4201027E-03 Eh
 * total energy  :   -32.0280389 Eh     change       -0.3154300E-03 Eh
 * total energy  :   -32.0282093 Eh     change       -0.1703629E-03 Eh
 * total energy  :   -32.0303462 Eh     change       -0.1056727E-03 Eh
 * total energy  :   -32.0305138 Eh     change       -0.1676417E-03 Eh
 * total energy  :   -32.0306696 Eh     change       -0.1557863E-03 Eh
 * total energy  :   -32.0307512 Eh     change       -0.8157952E-04 Eh
 * total energy  :   -32.0307458 Eh     change        0.5409377E-05 Eh
 * total energy  :   -32.0308045 Eh     change       -0.5872408E-04 Eh
 * total energy  :   -32.0308064 Eh     change       -0.1889199E-05 Eh
 * total energy  :   -32.0308116 Eh     change       -0.5226592E-05 Eh
 * total energy  :   -32.0308148 Eh     change       -0.3207879E-05 Eh
   *** GEOMETRY OPTIMIZATION CONVERGED AFTER 35 ITERATIONS ***

 final structure:
================
10
 xtb: 6.7.1 (edcfbbe)
C           -0.93582645593533       -0.71513365749241        0.76968194205125
C           -2.99255122595777        1.94034336922018       -0.18664155742883
F           -2.19204889597091       -0.77359881876620        0.10887352821599
F           -0.10859357614180       -1.40366470970607       -0.15599249809162
F           -1.10990437118070       -1.71098669095929        1.77045273971446
O           -3.60392241870023        1.88553501918199        0.77898706997510
O           -2.43553277548502        2.01499987164117       -1.18289239314466
O           -0.69044181485136        2.21856262387608        1.20992191682710
H           -0.59880162663436        1.25117075058597        1.09912262680851
H           -0.37951450887995        2.41365362900471        2.10241516254452

          :  Hamiltonian                  GFN2-xTB          :
         :: gradient norm              0.000898730882 Eh/a0 ::
         :: HOMO-LUMO gap              4.399834059036 eV    ::
         :: SCC energy               -32.199171434924 Eh    ::
         :: -> dispersion             -0.005208863442 Eh    ::
         :: -> Gsolv                  -0.112489676363 Eh    ::
         :: repulsion energy           0.168356601442 Eh    ::

    * Orbital Energies and Occupations

         #    Occupation            Energy/Eh            Energy/eV
      -------------------------------------------------------------
         1        2.0000           -0.8024328             -21.8353
       ...           ...                  ...                  ...
        13        2.0000           -0.5394529             -14.6793
        14        2.0000           -0.5390090             -14.6672
        15        2.0000           -0.5177817             -14.0896
        16        2.0000           -0.5169954             -14.0682
        17        2.0000           -0.5163711             -14.0512
        18        2.0000           -0.4935618             -13.4305
        19        2.0000           -0.4872328             -13.2583
        20        2.0000           -0.4871221             -13.2553
        21        2.0000           -0.4744975             -12.9117
        22        2.0000           -0.4721281             -12.8473
        23        2.0000           -0.4720488             -12.8451
        24        2.0000           -0.4292730             -11.6811
        25        2.0000           -0.3663399              -9.9686 (HOMO)
        26                         -0.2046490              -5.5688 (LUMO)
        27                         -0.2040902              -5.5536
        28                          0.0046280               0.1259
        29                          0.0083432               0.2270
        30                          0.0712084               1.9377
        31                          0.1327566               3.6125
        32                          0.2860815               7.7847
        33                          0.3300378               8.9808
        34                          1.3779979              37.4972
      -------------------------------------------------------------
                  HL-Gap            0.1616909 Eh            4.3998 eV

     #   Z          covCN         q      C6AA      α(0)
     1   6 C        2.340     0.140    26.027     8.295
     2   6 C        1.711     0.498    21.055     7.429
     3   9 F        0.782    -0.367    13.117     4.278
     4   9 F        0.783    -0.365    13.088     4.273
     5   9 F        0.782    -0.365    13.092     4.274
     6   8 O        0.856    -0.252    18.931     5.833
     7   8 O        0.856    -0.253    18.963     5.838
     8   8 O        1.608    -0.684    27.279     7.049
     9   1 H        0.803     0.282     0.779     1.387
    10   1 H        0.805     0.367     0.550     1.164

Wiberg/Mayer (AO) data.
largest (>0.10) Wiberg bond orders for each atom

     #   Z sym  total        # sym  WBO       # sym  WBO       # sym  WBO
 ---------------------------------------------------------------------------
     1   6 C    2.663 --     4 F    0.863     5 F    0.861     3 F    0.861
     2   6 C    3.928 --     7 O    1.960     6 O    1.958
     3   9 F    0.927 --     1 C    0.861
     4   9 F    0.929 --     1 C    0.863
     5   9 F    0.927 --     1 C    0.861
     6   8 O    2.347 --     2 C    1.958     7 O    0.386
     7   8 O    2.350 --     2 C    1.960     6 O    0.386
     8   8 O    1.773 --     9 H    0.867    10 H    0.864
     9   1 H    0.921 --     8 O    0.867
    10   1 H    0.865 --     8 O    0.864
 ---------------------------------------------------------------------------

molecular dipole:
                 x           y           z       tot (Debye)
 q only:        2.492       1.935      -0.485
   full:        2.473       1.374      -0.488       7.297

 projected vibrational frequencies (cm⁻¹)
eigval :       -0.00    -0.00    -0.00    -0.00     0.00     0.00
eigval :       -3.44    38.51    42.64    60.90    62.69    79.69
eigval :      104.23   129.01   237.44   322.34   410.71   411.61
eigval :      455.59   553.24   585.67   597.59   755.03   761.70
eigval :     1031.80  1422.17  1495.21  2530.39  3196.32  3569.57

   temp. (K)  partition function   enthalpy   heat capacity  entropy
                                   cal/mol     cal/K/mol   cal/K/mol   J/K/mol
 298.15  VIB  0.179E+07             5613.716     25.419     40.646
         ROT  0.566E+06              888.752      2.981     29.304
         INT  0.101E+13             6502.468     28.400     69.950
         TR   0.145E+28             1481.254      4.968     40.505
         TOT                        7983.7219    33.3681   110.4555   462.1457

       T/K    H(0)-H(T)+PV         H(T)/Eh          T*S/Eh         G(T)/Eh
   ------------------------------------------------------------------------
    298.15    0.127229E-01    0.556834E-01    0.524810E-01    0.320242E-02
   ------------------------------------------------------------------------

         :::::::::::::::::::::::::::::::::::::::::::::::::::::
         ::                  THERMODYNAMIC                  ::
         :::::::::::::::::::::::::::::::::::::::::::::::::::::
         :: total free energy         -32.027612406873 Eh   ::
         ::.................................................::
         :: total energy              -32.030814831214 Eh   ::
         :: zero point energy           0.042960511025 Eh   ::
         :: G(RRHO) w/o ZPVE           -0.039758086683 Eh   ::
         :: G(RRHO) contrib.            0.003202424341 Eh   ::
         :::::::::::::::::::::::::::::::::::::::::::::::::::::

           -------------------------------------------------
          | TOTAL ENERGY              -32.030814831214 Eh   |
          | TOTAL ENTHALPY            -31.975131449549 Eh   |
          | TOTAL FREE ENERGY         -32.027612406873 Eh   |
          | GRADIENT NORM               0.000898705344 Eh/α |
          | HOMO-LUMO GAP               4.399833530823 eV   |
           -------------------------------------------------

 * finished run on 2025/10/18 at 18:58:57.971
normal termination of xtb
