   * xtb version 6.7.1 (edcfbbe) compiled by 'albert@albert-system' on 2024-07-22

   ID    Z sym.   atoms
    1    6 C      1, 2
    2    9 F      3-5
    3    8 O      6-8
    4    1 H      9, 10

          program call               : xtb tb_lite_results_shiftn0p3_gp15_b0_rot270_complex.xyz --ohess --chrg -1 --alpb water
      * Solvation model:               ALPB
        Solvent                        water
        Solvent mass                       1.8000E+01 g/mol
          :  Hamiltonian                  GFN2-xTB          :
 * total energy  :   -31.9718172 Eh     change       -0.4902034E-10 Eh
 * total energy  :   -32.0149997 Eh     change       -0.4318246E-01 Eh
 * total energy  :   -32.0207485 Eh     change       -0.5748818E-02 Eh
 * total energy  :   -32.0176476 Eh     change        0.3100867E-02 Eh
 * total energy  :   -32.0241668 Eh     change       -0.6519184E-02 Eh
 * total energy  :   -32.0245552 Eh     change       -0.3883776E-03 Eh
 * total energy  :   -32.0252100 Eh     change       -0.6547820E-03 Eh
 * total energy  :   -32.0257296 Eh     change       -0.5195814E-03 Eh
 * total energy  :   -32.0260302 Eh     change       -0.3006728E-03 Eh
 * total energy  :   -32.0263521 Eh     change       -0.3218279E-03 Eh
 * total energy  :   -32.0307896 Eh     change       -0.5801580E-05 Eh
 * total energy  :   -32.0307994 Eh     change       -0.9833309E-05 Eh
 * total energy  :   -32.0308037 Eh     change       -0.4326726E-05 Eh
 * total energy  :   -32.0308107 Eh     change       -0.6951444E-05 Eh
 * total energy  :   -32.0308158 Eh     change       -0.5151473E-05 Eh
 * total energy  :   -32.0308221 Eh     change       -0.6254364E-05 Eh
 * total energy  :   -32.0308287 Eh     change       -0.6616233E-05 Eh
 * total energy  :   -32.0308309 Eh     change       -0.2201191E-05 Eh
 * total energy  :   -32.0308327 Eh     change       -0.1815968E-05 Eh
   *** GEOMETRY OPTIMIZATION CONVERGED AFTER 43 ITERATIONS ***

 final structure:
================
10
 xtb: 6.7.1 (edcfbbe)
C           -0.96912595548810       -0.64535942554681        0.71676509384406
C           -3.17964923939381        1.87207264922798       -0.20553019773117
F           -2.21075032031020       -0.79781979232141        0.04312132157119
F           -0.14297905769834       -1.52637294082496       -0.03474223423649
F           -1.19599905804017       -1.41939840332543        1.88565374029472
O           -3.67245247057886        1.80403184471074        0.82439320374586
O           -2.74088935270354        1.95643656391947       -1.25884337188478
O           -0.74243861269468        2.31783474687680        0.89901649076110
H           -0.69220658293519        1.34293625409419        0.94483263736859
H            0.15614859044168        2.62300063697010        0.72322689277965

          :  Hamiltonian                  GFN2-xTB          :
         :: gradient norm              0.000752283603 Eh/a0 ::
         :: HOMO-LUMO gap              4.402183248506 eV    ::
         :: SCC energy               -32.199291527215 Eh    ::
         :: -> dispersion             -0.005215735286 Eh    ::
         :: -> Gsolv                  -0.112623740575 Eh    ::
         :: repulsion energy           0.168458795589 Eh    ::

    * Orbital Energies and Occupations

         #    Occupation            Energy/Eh            Energy/eV
      -------------------------------------------------------------
         1        2.0000           -0.8024826             -21.8367
       ...           ...                  ...                  ...
        13        2.0000           -0.5394796             -14.6800
        14        2.0000           -0.5391077             -14.6699
        15        2.0000           -0.5177468             -14.0886
        16        2.0000           -0.5170601             -14.0699
        17        2.0000           -0.5164792             -14.0541
        18        2.0000           -0.4932463             -13.4219
        19        2.0000           -0.4872820             -13.2596
        20        2.0000           -0.4871861             -13.2570
        21        2.0000           -0.4745680             -12.9137
        22        2.0000           -0.4722296             -12.8500
        23        2.0000           -0.4720983             -12.8464
        24        2.0000           -0.4289636             -11.6727
        25        2.0000           -0.3664674              -9.9721 (HOMO)
        26                         -0.2046903              -5.5699 (LUMO)
        27                         -0.2041824              -5.5561
        28                          0.0045877               0.1248
        29                          0.0077846               0.2118
        30                          0.0707627               1.9256
        31                          0.1330710               3.6210
        32                          0.2874975               7.8232
        33                          0.3299849               8.9793
        34                          1.3786383              37.5147
      -------------------------------------------------------------
                  HL-Gap            0.1617771 Eh            4.4022 eV

     #   Z          covCN         q      C6AA      α(0)
     1   6 C        2.340     0.140    26.029     8.295
     2   6 C        1.711     0.497    21.057     7.429
     3   9 F        0.782    -0.367    13.117     4.278
     4   9 F        0.782    -0.365    13.088     4.273
     5   9 F        0.782    -0.365    13.089     4.273
     6   8 O        0.856    -0.253    18.963     5.838
     7   8 O        0.856    -0.251    18.918     5.831
     8   8 O        1.608    -0.684    27.299     7.052
     9   1 H        0.803     0.281     0.782     1.389
    10   1 H        0.805     0.368     0.548     1.163

Wiberg/Mayer (AO) data.
largest (>0.10) Wiberg bond orders for each atom

     #   Z sym  total        # sym  WBO       # sym  WBO       # sym  WBO
 ---------------------------------------------------------------------------
     1   6 C    2.663 --     5 F    0.863     4 F    0.862     3 F    0.861
     2   6 C    3.928 --     6 O    1.960     7 O    1.958
     3   9 F    0.928 --     1 C    0.861
     4   9 F    0.928 --     1 C    0.862
     5   9 F    0.928 --     1 C    0.863
     6   8 O    2.350 --     2 C    1.960     7 O    0.386
     7   8 O    2.348 --     2 C    1.958     6 O    0.386
     8   8 O    1.771 --     9 H    0.867    10 H    0.864
     9   1 H    0.921 --     8 O    0.867
    10   1 H    0.865 --     8 O    0.864
 ---------------------------------------------------------------------------

molecular dipole:
                 x           y           z       tot (Debye)
 q only:        2.973       1.922      -1.267
   full:        3.015       1.364      -1.311       9.048

 projected vibrational frequencies (cm⁻¹)
eigval :       -0.00    -0.00    -0.00     0.00     0.00     0.00
eigval :       13.89    39.16    42.87    61.55    63.49    79.78
eigval :      102.73   129.54   156.93   308.14   410.49   411.35
eigval :      451.75   552.96   586.21   597.82   754.59   760.47
eigval :     1031.19  1422.53  1497.83  2531.05  3203.68  3568.50

   temp. (K)  partition function   enthalpy   heat capacity  entropy
                                   cal/mol     cal/K/mol   cal/K/mol   J/K/mol
 298.15  VIB  0.577E+06             5689.940     25.602     40.128
         ROT  0.565E+06              888.752      2.981     29.301
         INT  0.326E+12             6578.692     28.583     69.430
         TR   0.145E+28             1481.254      4.968     40.505
         TOT                        8059.9462    33.5514   109.9349   459.9677

       T/K    H(0)-H(T)+PV         H(T)/Eh          T*S/Eh         G(T)/Eh
   ------------------------------------------------------------------------
    298.15    0.128443E-01    0.556249E-01    0.522336E-01    0.339129E-02
   ------------------------------------------------------------------------

         :::::::::::::::::::::::::::::::::::::::::::::::::::::
         ::                  THERMODYNAMIC                  ::
         :::::::::::::::::::::::::::::::::::::::::::::::::::::
         :: total free energy         -32.027441437599 Eh   ::
         ::.................................................::
         :: total energy              -32.030832731450 Eh   ::
         :: zero point energy           0.042780584213 Eh   ::
         :: G(RRHO) w/o ZPVE           -0.039389290362 Eh   ::
         :: G(RRHO) contrib.            0.003391293851 Eh   ::
         :::::::::::::::::::::::::::::::::::::::::::::::::::::

           -------------------------------------------------
          | TOTAL ENERGY              -32.030832731450 Eh   |
          | TOTAL ENTHALPY            -31.975207805357 Eh   |
          | TOTAL FREE ENERGY         -32.027441437599 Eh   |
          | GRADIENT NORM               0.000751905565 Eh/α |
          | HOMO-LUMO GAP               4.402179989376 eV   |
           -------------------------------------------------

 * finished run on 2025/10/18 at 18:59:07.256
normal termination of xtb
