   * xtb version 6.7.1 (edcfbbe) compiled by 'albert@albert-system' on 2024-07-22

   ID    Z sym.   atoms
    1    6 C      1, 2
    2    9 F      3-5
    3    8 O      6-8
    4    1 H      9, 10

          program call               : xtb tb_lite_results_shiftn0p05_gp480_b0_rot180_complex.xyz --ohess --chrg -1 --alpb water
      * Solvation model:               ALPB
        Solvent                        water
        Solvent mass                       1.8000E+01 g/mol
          :  Hamiltonian                  GFN2-xTB          :
 * total energy  :   -31.9733035 Eh     change       -0.3907985E-11 Eh
 * total energy  :   -32.0218413 Eh     change       -0.4853783E-01 Eh
 * total energy  :   -32.0239003 Eh     change       -0.2058979E-02 Eh
 * total energy  :   -32.0242059 Eh     change       -0.3056563E-03 Eh
 * total energy  :   -32.0254097 Eh     change       -0.1203762E-02 Eh
 * total energy  :   -32.0257405 Eh     change       -0.3308098E-03 Eh
 * total energy  :   -32.0262930 Eh     change       -0.5525120E-03 Eh
 * total energy  :   -32.0267300 Eh     change       -0.4369776E-03 Eh
 * total energy  :   -32.0271069 Eh     change       -0.3768763E-03 Eh
 * total energy  :   -32.0273710 Eh     change       -0.2641238E-03 Eh
 * total energy  :   -32.0577076 Eh     change       -0.1840508E-04 Eh
 * total energy  :   -32.0577157 Eh     change       -0.8143040E-05 Eh
 * total energy  :   -32.0577286 Eh     change       -0.1285395E-04 Eh
 * total energy  :   -32.0576323 Eh     change        0.9632143E-04 Eh
 * total energy  :   -32.0577455 Eh     change       -0.1132200E-03 Eh
 * total energy  :   -32.0577590 Eh     change       -0.1351924E-04 Eh
 * total energy  :   -32.0577638 Eh     change       -0.4807421E-05 Eh
 * total energy  :   -32.0577689 Eh     change       -0.5111633E-05 Eh
 * total energy  :   -32.0577704 Eh     change       -0.1489287E-05 Eh
   *** GEOMETRY OPTIMIZATION CONVERGED AFTER 72 ITERATIONS ***

 final structure:
================
10
 xtb: 6.7.1 (edcfbbe)
C           -1.01222259090316       -0.05252866766122       -0.04867503658222
C           -2.13409887373201        1.02679677722947        0.34594817052248
F           -1.41904977497859       -0.87633835223614       -1.04050498572608
F            0.12916016933556        0.51824688196642       -0.49231149382162
F           -0.64824998550762       -0.85677997841767        0.96994906093639
O           -2.59010355267141        0.88337424420140        1.47634610287852
O           -2.37232279335850        1.83419300773091       -0.54265198440272
O           -4.81410815145873        0.64840902292607        3.31492456595783
H           -4.15347608300574        0.78919757183597        2.62315438441830
H           -4.31481120112240        0.41893120153868        4.10635996325012

          :  Hamiltonian                  GFN2-xTB          :
         :: gradient norm              0.000329222667 Eh/a0 ::
         :: HOMO-LUMO gap              5.118420558498 eV    ::
         :: SCC energy               -32.191987432925 Eh    ::
         :: -> dispersion             -0.005071355271 Eh    ::
         :: -> Gsolv                  -0.096068761915 Eh    ::
         :: repulsion energy           0.134217005952 Eh    ::

    * Orbital Energies and Occupations

         #    Occupation            Energy/Eh            Energy/eV
      -------------------------------------------------------------
         1        2.0000           -0.8871082             -24.1394
       ...           ...                  ...                  ...
        13        2.0000           -0.5578209             -15.1791
        14        2.0000           -0.5542375             -15.0816
        15        2.0000           -0.5465352             -14.8720
        16        2.0000           -0.5450290             -14.8310
        17        2.0000           -0.5437474             -14.7961
        18        2.0000           -0.5430321             -14.7767
        19        2.0000           -0.5414536             -14.7337
        20        2.0000           -0.5318828             -14.4733
        21        2.0000           -0.4904286             -13.3452
        22        2.0000           -0.4475493             -12.1784
        23        2.0000           -0.4353105             -11.8454
        24        2.0000           -0.4271811             -11.6242
        25        2.0000           -0.4120113             -11.2114 (HOMO)
        26                         -0.2239128              -6.0930 (LUMO)
        27                         -0.0004448              -0.0121
        28                          0.0405079               1.1023
        29                          0.0623017               1.6953
        30                          0.1190169               3.2386
        31                          0.1273205               3.4646
        32                          0.2803242               7.6280
        33                          0.3930279              10.6948
        34                          0.7042706              19.1642
      -------------------------------------------------------------
                  HL-Gap            0.1880985 Eh            5.1184 eV

     #   Z          covCN         q      C6AA      α(0)
     1   6 C        3.315     0.434    18.281     6.816
     2   6 C        2.674     0.372    20.700     7.445
     3   9 F        0.789    -0.232    11.567     4.017
     4   9 F        0.789    -0.230    11.554     4.015
     5   9 F        0.789    -0.226    11.504     4.007
     6   8 O        0.856    -0.555    25.033     6.708
     7   8 O        0.856    -0.552    24.959     6.698
     8   8 O        1.610    -0.686    27.349     7.058
     9   1 H        0.805     0.313     0.684     1.299
    10   1 H        0.805     0.362     0.561     1.177

Wiberg/Mayer (AO) data.
largest (>0.10) Wiberg bond orders for each atom

     #   Z sym  total        # sym  WBO       # sym  WBO       # sym  WBO
 ---------------------------------------------------------------------------
     1   6 C    3.730 --     5 F    0.943     4 F    0.938     3 F    0.936
                             2 C    0.785
     2   6 C    3.952 --     7 O    1.568     6 O    1.541     1 C    0.785
     3   9 F    1.050 --     1 C    0.936
     4   9 F    1.051 --     1 C    0.938
     5   9 F    1.057 --     1 C    0.943
     6   8 O    1.895 --     2 C    1.541     7 O    0.252
     7   8 O    1.904 --     2 C    1.568     6 O    0.252
     8   8 O    1.764 --     9 H    0.884    10 H    0.869
     9   1 H    0.902 --     8 O    0.884
    10   1 H    0.869 --     8 O    0.869
 ---------------------------------------------------------------------------

molecular dipole:
                 x           y           z       tot (Debye)
 q only:        4.538      -1.724      -0.464
   full:        4.880      -1.829      -0.550      13.319

 projected vibrational frequencies (cm⁻¹)
eigval :       -0.00    -0.00    -0.00     0.00     0.00     0.00
eigval :      -13.95    11.25    54.28    77.56   122.53   174.88
eigval :      195.60   330.67   345.57   402.85   451.96   509.40
eigval :      546.22   635.99   708.26   714.75  1006.15  1039.42
eigval :     1138.78  1303.33  1505.47  1816.37  3511.71  3597.55

   temp. (K)  partition function   enthalpy   heat capacity  entropy
                                   cal/mol     cal/K/mol   cal/K/mol   J/K/mol
 298.15  VIB  0.712E+05             4699.056     23.163     32.058
         ROT  0.538E+06              888.752      2.981     29.203
         INT  0.383E+11             5587.808     26.144     61.261
         TR   0.145E+28             1481.254      4.968     40.505
         TOT                        7069.0618    31.1117   101.7663   425.7901

       T/K    H(0)-H(T)+PV         H(T)/Eh          T*S/Eh         G(T)/Eh
   ------------------------------------------------------------------------
    298.15    0.112653E-01    0.573173E-01    0.483524E-01    0.896486E-02
   ------------------------------------------------------------------------

         :::::::::::::::::::::::::::::::::::::::::::::::::::::
         ::                  THERMODYNAMIC                  ::
         :::::::::::::::::::::::::::::::::::::::::::::::::::::
         :: total free energy         -32.048805566587 Eh   ::
         ::.................................................::
         :: total energy              -32.057770427600 Eh   ::
         :: zero point energy           0.046052032507 Eh   ::
         :: G(RRHO) w/o ZPVE           -0.037087171494 Eh   ::
         :: G(RRHO) contrib.            0.008964861012 Eh   ::
         :::::::::::::::::::::::::::::::::::::::::::::::::::::

           -------------------------------------------------
          | TOTAL ENERGY              -32.057770427600 Eh   |
          | TOTAL ENTHALPY            -32.000453127972 Eh   |
          | TOTAL FREE ENERGY         -32.048805566587 Eh   |
          | GRADIENT NORM               0.000329220488 Eh/α |
          | HOMO-LUMO GAP               5.118420843642 eV   |
           -------------------------------------------------

 * finished run on 2025/10/18 at 18:59:09.984
normal termination of xtb
