   * xtb version 6.7.1 (edcfbbe) compiled by 'albert@albert-system' on 2024-07-22

   ID    Z sym.   atoms
    1    6 C      1, 2
    2    9 F      3-5
    3    8 O      6-8
    4    1 H      9, 10

          program call               : xtb tb_lite_results_shiftn0p3_gp15_b0_rot0_complex.xyz --ohess --chrg -1 --alpb water
      * Solvation model:               ALPB
        Solvent                        water
        Solvent mass                       1.8000E+01 g/mol
          :  Hamiltonian                  GFN2-xTB          :
 * total energy  :   -31.9773579 Eh     change       -0.1929124E-10 Eh
 * total energy  :   -32.0204243 Eh     change       -0.4306631E-01 Eh
 * total energy  :   -32.0160500 Eh     change        0.4374273E-02 Eh
 * total energy  :   -32.0238819 Eh     change       -0.7831875E-02 Eh
 * total energy  :   -32.0258665 Eh     change       -0.1984670E-02 Eh
 * total energy  :   -32.0268701 Eh     change       -0.1003584E-02 Eh
 * total energy  :   -32.0273278 Eh     change       -0.4577310E-03 Eh
 * total energy  :   -32.0277552 Eh     change       -0.4274052E-03 Eh
 * total energy  :   -32.0280812 Eh     change       -0.3259610E-03 Eh
 * total energy  :   -32.0283118 Eh     change       -0.2306299E-03 Eh
 * total energy  :   -32.0301893 Eh     change       -0.1252750E-03 Eh
 * total energy  :   -32.0303061 Eh     change       -0.1168097E-03 Eh
 * total energy  :   -32.0305902 Eh     change       -0.2840844E-03 Eh
 * total energy  :   -32.0307204 Eh     change       -0.1302499E-03 Eh
 * total energy  :   -32.0306787 Eh     change        0.4176765E-04 Eh
 * total energy  :   -32.0307845 Eh     change       -0.1058185E-03 Eh
 * total energy  :   -32.0307995 Eh     change       -0.1504157E-04 Eh
 * total energy  :   -32.0308066 Eh     change       -0.7073796E-05 Eh
 * total energy  :   -32.0308107 Eh     change       -0.4098793E-05 Eh
   *** GEOMETRY OPTIMIZATION CONVERGED AFTER 34 ITERATIONS ***

 final structure:
================
10
 xtb: 6.7.1 (edcfbbe)
C           -0.92672610543698       -0.72188584950342        0.77574809423993
C           -2.97569582031811        1.94733529893574       -0.20023685077602
F           -2.19029751782332       -0.76613536733903        0.12835634828463
F           -0.15548959888106       -1.55764915337978       -0.07802909846410
F           -1.15291568773251       -1.59342099889898        1.87444868758532
O           -3.54917141100660        1.91312256323423        0.78890227890623
O           -2.45613524818900        2.00144843234670       -1.21832816884270
O           -0.61632950042783        2.22260262784378        1.08535557250887
H           -0.59958322970156        1.24529731159702        1.11145794152213
H            0.29827423982233        2.50078722454553        0.95499587843008

          :  Hamiltonian                  GFN2-xTB          :
         :: gradient norm              0.000880637790 Eh/a0 ::
         :: HOMO-LUMO gap              4.401181446906 eV    ::
         :: SCC energy               -32.199163213791 Eh    ::
         :: -> dispersion             -0.005201335351 Eh    ::
         :: -> Gsolv                  -0.112651510737 Eh    ::
         :: repulsion energy           0.168352517567 Eh    ::

    * Orbital Energies and Occupations

         #    Occupation            Energy/Eh            Energy/eV
      -------------------------------------------------------------
         1        2.0000           -0.8023548             -21.8332
       ...           ...                  ...                  ...
        13        2.0000           -0.5393716             -14.6770
        14        2.0000           -0.5389046             -14.6643
        15        2.0000           -0.5176691             -14.0865
        16        2.0000           -0.5168909             -14.0653
        17        2.0000           -0.5162904             -14.0490
        18        2.0000           -0.4934199             -13.4266
        19        2.0000           -0.4871615             -13.2563
        20        2.0000           -0.4870441             -13.2531
        21        2.0000           -0.4744244             -12.9097
        22        2.0000           -0.4720589             -12.8454
        23        2.0000           -0.4719711             -12.8430
        24        2.0000           -0.4292087             -11.6794
        25        2.0000           -0.3663365              -9.9685 (HOMO)
        26                         -0.2045961              -5.5673 (LUMO)
        27                         -0.2040019              -5.5512
        28                          0.0049353               0.1343
        29                          0.0077168               0.2100
        30                          0.0713272               1.9409
        31                          0.1330438               3.6203
        32                          0.2867946               7.8041
        33                          0.3299133               8.9774
        34                          1.3777868              37.4915
      -------------------------------------------------------------
                  HL-Gap            0.1617404 Eh            4.4012 eV

     #   Z          covCN         q      C6AA      α(0)
     1   6 C        2.340     0.140    26.028     8.295
     2   6 C        1.711     0.498    21.054     7.428
     3   9 F        0.782    -0.367    13.117     4.278
     4   9 F        0.782    -0.365    13.088     4.273
     5   9 F        0.782    -0.365    13.094     4.274
     6   8 O        0.856    -0.253    18.953     5.837
     7   8 O        0.856    -0.252    18.942     5.835
     8   8 O        1.608    -0.684    27.291     7.051
     9   1 H        0.803     0.282     0.779     1.387
    10   1 H        0.805     0.368     0.548     1.163

Wiberg/Mayer (AO) data.
largest (>0.10) Wiberg bond orders for each atom

     #   Z sym  total        # sym  WBO       # sym  WBO       # sym  WBO
 ---------------------------------------------------------------------------
     1   6 C    2.662 --     5 F    0.863     4 F    0.862     3 F    0.861
     2   6 C    3.928 --     6 O    1.961     7 O    1.958
     3   9 F    0.928 --     1 C    0.861
     4   9 F    0.928 --     1 C    0.862
     5   9 F    0.928 --     1 C    0.863
     6   8 O    2.350 --     2 C    1.961     7 O    0.386
     7   8 O    2.347 --     2 C    1.958     6 O    0.386
     8   8 O    1.772 --     9 H    0.867    10 H    0.864
     9   1 H    0.921 --     8 O    0.867
    10   1 H    0.865 --     8 O    0.864
 ---------------------------------------------------------------------------

molecular dipole:
                 x           y           z       tot (Debye)
 q only:        2.933       2.007      -1.257
   full:        2.953       1.454      -1.329       9.022

 projected vibrational frequencies (cm⁻¹)
eigval :       -0.00    -0.00    -0.00    -0.00     0.00     0.00
eigval :       -6.62    37.09    42.92    61.18    63.88    82.68
eigval :      101.48   126.98   207.66   302.42   410.91   411.59
eigval :      469.88   553.17   586.11   598.30   755.23   760.94
eigval :     1031.42  1421.82  1489.17  2529.87  3200.97  3568.23

   temp. (K)  partition function   enthalpy   heat capacity  entropy
                                   cal/mol     cal/K/mol   cal/K/mol   J/K/mol
 298.15  VIB  0.104E+07             5646.151     25.479     40.311
         ROT  0.567E+06              888.752      2.981     29.307
         INT  0.589E+12             6534.903     28.460     69.618
         TR   0.145E+28             1481.254      4.968     40.505
         TOT                        8016.1573    33.4280   110.1231   460.7553

       T/K    H(0)-H(T)+PV         H(T)/Eh          T*S/Eh         G(T)/Eh
   ------------------------------------------------------------------------
    298.15    0.127746E-01    0.556509E-01    0.523231E-01    0.332783E-02
   ------------------------------------------------------------------------

         :::::::::::::::::::::::::::::::::::::::::::::::::::::
         ::                  THERMODYNAMIC                  ::
         :::::::::::::::::::::::::::::::::::::::::::::::::::::
         :: total free energy         -32.027482865672 Eh   ::
         ::.................................................::
         :: total energy              -32.030810695207 Eh   ::
         :: zero point energy           0.042876330823 Eh   ::
         :: G(RRHO) w/o ZPVE           -0.039548501288 Eh   ::
         :: G(RRHO) contrib.            0.003327829535 Eh   ::
         :::::::::::::::::::::::::::::::::::::::::::::::::::::

           -------------------------------------------------
          | TOTAL ENERGY              -32.030810695207 Eh   |
          | TOTAL ENTHALPY            -31.975159804666 Eh   |
          | TOTAL FREE ENERGY         -32.027482865672 Eh   |
          | GRADIENT NORM               0.000880541690 Eh/α |
          | HOMO-LUMO GAP               4.401179921087 eV   |
           -------------------------------------------------

 * finished run on 2025/10/18 at 18:59:02.180
normal termination of xtb
