   * xtb version 6.7.1 (edcfbbe) compiled by 'albert@albert-system' on 2024-07-22

   ID    Z sym.   atoms
    1    6 C      1, 2
    2    9 F      3-5
    3    8 O      6-8
    4    1 H      9, 10

          program call               : xtb tb_lite_results_shiftn0p05_gp317_b0_rot90_complex.xyz --ohess --chrg -1 --alpb water
      * Solvation model:               ALPB
        Solvent                        water
        Solvent mass                       1.8000E+01 g/mol
          :  Hamiltonian                  GFN2-xTB          :
 * total energy  :   -31.9729083 Eh     change       -0.1538751E-09 Eh
 * total energy  :   -32.0219710 Eh     change       -0.4906268E-01 Eh
 * total energy  :   -32.0240662 Eh     change       -0.2095225E-02 Eh
 * total energy  :   -32.0250203 Eh     change       -0.9541149E-03 Eh
 * total energy  :   -32.0259245 Eh     change       -0.9042111E-03 Eh
 * total energy  :   -32.0266246 Eh     change       -0.7000943E-03 Eh
 * total energy  :   -32.0272810 Eh     change       -0.6563556E-03 Eh
 * total energy  :   -32.0276945 Eh     change       -0.4135065E-03 Eh
 * total energy  :   -32.0280387 Eh     change       -0.3442092E-03 Eh
 * total energy  :   -32.0281449 Eh     change       -0.1061822E-03 Eh
 * total energy  :   -32.0577828 Eh     change       -0.3162842E-04 Eh
 * total energy  :   -32.0577815 Eh     change        0.1312071E-05 Eh
 * total energy  :   -32.0578018 Eh     change       -0.2028581E-04 Eh
 * total energy  :   -32.0578102 Eh     change       -0.8419621E-05 Eh
 * total energy  :   -32.0578100 Eh     change        0.2170723E-06 Eh
 * total energy  :   -32.0578367 Eh     change       -0.2665956E-04 Eh
 * total energy  :   -32.0578422 Eh     change       -0.5526175E-05 Eh
 * total energy  :   -32.0578433 Eh     change       -0.1091915E-05 Eh
 * total energy  :   -32.0578459 Eh     change       -0.2651888E-05 Eh
   *** GEOMETRY OPTIMIZATION CONVERGED AFTER 70 ITERATIONS ***

 final structure:
================
10
 xtb: 6.7.1 (edcfbbe)
C           -2.11205172737255       -0.33104551238285        1.11814855676083
C           -2.13593844242478        0.74954834798252       -0.06956125794196
F           -3.12216647685890       -1.22442313294121        1.02190341660428
F           -0.98062121717869       -1.06166178068340        1.16861279991239
F           -2.23986445991791        0.23527913003359        2.33809860645121
O           -3.13449230118688        1.45740425696096       -0.06802662813336
O           -1.15419482232783        0.70664273378378       -0.80461153444866
O            0.22202850088372        1.34450608999749       -3.26172582368939
H            1.02625845785840        0.84832810966848       -3.07427510980343
H           -0.34189537956915        1.22440209272183       -2.48478193681345

          :  Hamiltonian                  GFN2-xTB          :
         :: gradient norm              0.000306757940 Eh/a0 ::
         :: HOMO-LUMO gap              5.124076411066 eV    ::
         :: SCC energy               -32.192054130765 Eh    ::
         :: -> dispersion             -0.005064491962 Eh    ::
         :: -> Gsolv                  -0.095687564462 Eh    ::
         :: repulsion energy           0.134208185898 Eh    ::

    * Orbital Energies and Occupations

         #    Occupation            Energy/Eh            Energy/eV
      -------------------------------------------------------------
         1        2.0000           -0.8873197             -24.1452
       ...           ...                  ...                  ...
        13        2.0000           -0.5580797             -15.1861
        14        2.0000           -0.5542294             -15.0813
        15        2.0000           -0.5471343             -14.8883
        16        2.0000           -0.5452177             -14.8361
        17        2.0000           -0.5439024             -14.8003
        18        2.0000           -0.5432134             -14.7816
        19        2.0000           -0.5416583             -14.7393
        20        2.0000           -0.5311949             -14.4545
        21        2.0000           -0.4896599             -13.3243
        22        2.0000           -0.4479105             -12.1883
        23        2.0000           -0.4354899             -11.8503
        24        2.0000           -0.4264534             -11.6044
        25        2.0000           -0.4120949             -11.2137 (HOMO)
        26                         -0.2237884              -6.0896 (LUMO)
        27                         -0.0008717              -0.0237
        28                          0.0405121               1.1024
        29                          0.0621918               1.6923
        30                          0.1186642               3.2290
        31                          0.1286078               3.4996
        32                          0.2811479               7.6504
        33                          0.3912954              10.6477
        34                          0.7052562              19.1910
      -------------------------------------------------------------
                  HL-Gap            0.1883065 Eh            5.1241 eV

     #   Z          covCN         q      C6AA      α(0)
     1   6 C        3.315     0.434    18.278     6.815
     2   6 C        2.674     0.372    20.700     7.445
     3   9 F        0.789    -0.231    11.564     4.017
     4   9 F        0.789    -0.226    11.503     4.006
     5   9 F        0.789    -0.231    11.555     4.015
     6   8 O        0.856    -0.552    24.963     6.699
     7   8 O        0.856    -0.554    25.004     6.704
     8   8 O        1.610    -0.687    27.363     7.060
     9   1 H        0.805     0.360     0.566     1.181
    10   1 H        0.805     0.314     0.681     1.296

Wiberg/Mayer (AO) data.
largest (>0.10) Wiberg bond orders for each atom

     #   Z sym  total        # sym  WBO       # sym  WBO       # sym  WBO
 ---------------------------------------------------------------------------
     1   6 C    3.730 --     4 F    0.943     5 F    0.938     3 F    0.936
                             2 C    0.785
     2   6 C    3.952 --     6 O    1.568     7 O    1.542     1 C    0.785
     3   9 F    1.050 --     1 C    0.936
     4   9 F    1.057 --     1 C    0.943
     5   9 F    1.051 --     1 C    0.938
     6   8 O    1.904 --     2 C    1.568     7 O    0.253
     7   8 O    1.899 --     2 C    1.542     6 O    0.253
     8   8 O    1.764 --    10 H    0.882     9 H    0.871
     9   1 H    0.870 --     8 O    0.871
    10   1 H    0.902 --     8 O    0.882
 ---------------------------------------------------------------------------

molecular dipole:
                 x           y           z       tot (Debye)
 q only:        4.208      -1.561       0.488
   full:        4.197      -1.768       0.815      11.760

 projected vibrational frequencies (cm⁻¹)
eigval :       -0.00    -0.00    -0.00    -0.00     0.00     0.00
eigval :       -7.83    10.35    25.68    75.55   113.24   176.81
eigval :      195.60   292.46   343.64   404.16   451.39   520.97
eigval :      546.76   635.99   708.15   713.80  1006.18  1039.79
eigval :     1138.88  1303.71  1500.67  1816.93  3497.31  3591.59

   temp. (K)  partition function   enthalpy   heat capacity  entropy
                                   cal/mol     cal/K/mol   cal/K/mol   J/K/mol
 298.15  VIB  0.303E+06             4783.432     22.686     33.215
         ROT  0.539E+06              888.752      2.981     29.209
         INT  0.164E+12             5672.184     25.667     62.424
         TR   0.145E+28             1481.254      4.968     40.505
         TOT                        7153.4381    30.6347   102.9297   430.6577

       T/K    H(0)-H(T)+PV         H(T)/Eh          T*S/Eh         G(T)/Eh
   ------------------------------------------------------------------------
    298.15    0.113997E-01    0.572307E-01    0.489052E-01    0.832548E-02
   ------------------------------------------------------------------------

         :::::::::::::::::::::::::::::::::::::::::::::::::::::
         ::                  THERMODYNAMIC                  ::
         :::::::::::::::::::::::::::::::::::::::::::::::::::::
         :: total free energy         -32.049520461177 Eh   ::
         ::.................................................::
         :: total energy              -32.057845945923 Eh   ::
         :: zero point energy           0.045830954079 Eh   ::
         :: G(RRHO) w/o ZPVE           -0.037505469332 Eh   ::
         :: G(RRHO) contrib.            0.008325484746 Eh   ::
         :::::::::::::::::::::::::::::::::::::::::::::::::::::

           -------------------------------------------------
          | TOTAL ENERGY              -32.057845945923 Eh   |
          | TOTAL ENTHALPY            -32.000615262601 Eh   |
          | TOTAL FREE ENERGY         -32.049520461177 Eh   |
          | GRADIENT NORM               0.000306751612 Eh/α |
          | HOMO-LUMO GAP               5.124080698678 eV   |
           -------------------------------------------------

 * finished run on 2025/10/18 at 18:59:05.102
normal termination of xtb
