                         Program Version 5.0.4 -  RELEASE  -
|  1> !OPT PBE def2-TZVP CPCM(water)
|  2>
|  3> *xyz -1 1
|  4> C     -4.201054   -4.134837   -3.290092
|  5> C     -2.903445   -4.645638   -3.215752
|  6> H     -3.776010   -1.282679   -1.500208
|  7> C     -4.532245   -2.926779   -2.657985
|  8> H     -4.967911   -4.660161   -3.852502
|  9> C     -1.919176   -3.951363   -2.513110
| 10> H     -2.665768   -5.578049   -3.716508
| 11> C     -2.230246   -2.742696   -1.890706
| 12> H     -0.908796   -4.343224   -2.463174
| 13> C     -3.528531   -2.234156   -1.963751
| 14> H     -1.466768   -2.186415   -1.358065
| 15> C     -5.961328   -2.380223   -2.716904
| 16> H     -6.612421   -3.269713   -2.747116
| 17> H     -6.171554   -2.028413   -1.692988
| 18> O     -6.025030   -1.513925   -3.716313
| 19> *
| 20>
| 21>                          ****END OF INPUT****
 Total Charge           Charge          ....   -1
 Multiplicity           Mult            ....    1
 Number of Electrons    NEL             ....   58
FINAL SINGLE POINT ENERGY      -345.964181937271
FINAL SINGLE POINT ENERGY      -345.968790682745
FINAL SINGLE POINT ENERGY      -345.969429252722
FINAL SINGLE POINT ENERGY      -345.969548258310
FINAL SINGLE POINT ENERGY      -345.969588331470
FINAL SINGLE POINT ENERGY      -345.969601830922
FINAL SINGLE POINT ENERGY      -345.969606541967
FINAL SINGLE POINT ENERGY      -345.969608502669
                    ***********************HURRAY********************

CARTESIAN COORDINATES (ANGSTROEM)
---------------------------------
  C     -4.201914   -4.153626   -3.258001
  C     -2.889810   -4.639495   -3.235598
  H     -3.791554   -1.343104   -1.391508
  C     -4.548975   -2.961326   -2.602182
  H     -4.979288   -4.710675   -3.790654
  C     -1.892853   -3.934531   -2.550913
  H     -2.643306   -5.573478   -3.746998
  C     -2.222391   -2.746365   -1.887172
  H     -0.867835   -4.310914   -2.529517
  C     -3.537491   -2.270278   -1.915167
  H     -1.452338   -2.195470   -1.341175
  C     -5.952918   -2.372575   -2.731086
  H     -6.662474   -3.254228   -2.761296
  H     -6.178040   -1.872548   -1.740539
  O     -6.049097   -1.539656   -3.813368

 Multiplicity           Mult            ....    1
 Number of Electrons    NEL             ....   58
 Basis Dimension        Dim             ....  290

ORBITAL ENERGIES
----------------

  NO   OCC          E(Eh)            E(eV)
   0   2.0000     -18.622188      -506.7355
   1   2.0000      -9.883662      -268.9481
   2   2.0000      -9.877165      -268.7713
   3   2.0000      -9.877131      -268.7704
   4   2.0000      -9.875775      -268.7335
   5   2.0000      -9.872497      -268.6443
   6   2.0000      -9.872470      -268.6436
   7   2.0000      -9.871292      -268.6115
   8   2.0000      -0.803152       -21.8549
   9   2.0000      -0.760934       -20.7061
  10   2.0000      -0.664506       -18.0821
  11   2.0000      -0.661469       -17.9995
  12   2.0000      -0.554533       -15.0896
  13   2.0000      -0.530971       -14.4485
  14   2.0000      -0.496101       -13.4996
  15   2.0000      -0.440599       -11.9893
  16   2.0000      -0.395559       -10.7637
  17   2.0000      -0.388616       -10.5748
  18   2.0000      -0.358934        -9.7671
  19   2.0000      -0.348963        -9.4958
  20   2.0000      -0.324364        -8.8264
  21   2.0000      -0.319409        -8.6916
  22   2.0000      -0.295902        -8.0519
  23   2.0000      -0.281246        -7.6531
  24   2.0000      -0.279036        -7.5930
  25   2.0000      -0.222050        -6.0423
  26   2.0000      -0.213356        -5.8057
  27   2.0000      -0.132936        -3.6174
  28   2.0000      -0.131038        -3.5657
  29   0.0000      -0.033015        -0.8984
  30   0.0000      -0.029987        -0.8160
  31   0.0000       0.040580         1.1042
  32   0.0000       0.059518         1.6196
  33   0.0000       0.067402         1.8341

MULLIKEN ATOMIC CHARGES
-----------------------
   0 C :   -0.229551
   1 C :   -0.142022
   2 H :    0.119535
   3 C :    0.214840
   4 H :    0.119141
   5 C :   -0.160635
   6 H :    0.125902
   7 C :   -0.141986
   8 H :    0.127922
   9 C :   -0.232733
  10 H :    0.125898
  11 C :   -0.109628
  12 H :   -0.000641
  13 H :   -0.001301
  14 O :   -0.814742
Sum of atomic charges:   -1.0000000

LOEWDIN ATOMIC CHARGES
----------------------
   0 C :   -0.145631
   1 C :   -0.168367
   2 H :    0.147469
   3 C :   -0.163451
   4 H :    0.147306
   5 C :   -0.174852
   6 H :    0.146693
   7 C :   -0.168343
   8 H :    0.146432
   9 C :   -0.145392
  10 H :    0.146685
  11 C :   -0.498527
  12 H :    0.081287
  13 H :    0.081065
  14 O :   -0.432375

  Mayer bond orders larger than 0.100000
B(  0-C ,  1-C ) :   1.4007 B(  0-C ,  3-C ) :   1.3381 B(  0-C ,  4-H ) :   0.9782
B(  1-C ,  5-C ) :   1.3813 B(  1-C ,  6-H ) :   0.9712 B(  2-H ,  9-C ) :   0.9793
B(  3-C ,  9-C ) :   1.3332 B(  3-C , 11-C ) :   0.8118 B(  3-C , 14-O ) :  -0.1652
B(  5-C ,  7-C ) :   1.3791 B(  5-C ,  8-H ) :   0.9663 B(  7-C ,  9-C ) :   1.4024
B(  7-C , 10-H ) :   0.9712 B( 11-C , 12-H ) :   0.9294 B( 11-C , 13-H ) :   0.9296
B( 11-C , 14-O ) :   1.5621

FINAL SINGLE POINT ENERGY      -345.969609150631

DIPOLE MOMENT
-------------
                                X             Y             Z
Electronic contribution:      2.13371      -0.49485      -0.34581
Nuclear contribution   :      1.20064      -1.86096       1.94721
                        -----------------------------------------
Total Dipole Moment    :      3.33434      -2.35581       1.60141
                        -----------------------------------------
Magnitude (a.u.)       :      4.38545
Magnitude (Debye)      :     11.14694

Rotational constants in cm-1:     0.157174     0.050087     0.041141
Rotational constants in MHz :  4711.958756  1501.560492  1233.370901

                             ****ORCA TERMINATED NORMALLY****
TOTAL RUN TIME: 0 days 0 hours 8 minutes 43 seconds 763 msec
