   * xtb version 6.7.1 (edcfbbe) compiled by 'albert@albert-system' on 2024-07-22

   ID    Z sym.   atoms
    1    8 O      1
    2    6 C      2, 3
    3    1 H      4-8

          program call               : xtb tb_lite_results_shiftn0p3_gp13_b0_rot0_solute.xyz --ohess --chrg -1
          :  Hamiltonian                  GFN2-xTB          :
 * total energy  :   -11.0363589 Eh     change       -0.4171934E-09 Eh
 * total energy  :   -11.0383751 Eh     change       -0.2016218E-02 Eh
 * total energy  :   -11.0391768 Eh     change       -0.8017229E-03 Eh
 * total energy  :   -11.0393276 Eh     change       -0.1508289E-03 Eh
 * total energy  :   -11.0393506 Eh     change       -0.2301909E-04 Eh
 * total energy  :   -11.0393511 Eh     change       -0.4805560E-06 Eh
   *** GEOMETRY OPTIMIZATION CONVERGED AFTER 6 ITERATIONS ***

 final structure:
================
8
 xtb: 6.7.1 (edcfbbe)
O           -1.19066679083956        4.41143358427036       -1.36728162738170
C           -1.57780666230855        3.44645422667875       -0.59498303700497
C           -3.08152822680922        2.99197040089364       -0.75218496313189
H           -0.97920232319071        2.45884582787692       -0.71770968728918
H           -1.47441496431893        3.66464524233668        0.54102595834126
H           -3.25739394511240        2.66011871938489       -1.77537434685732
H           -3.32182980551000        2.17545515970039       -0.06479556319586
H           -3.74067737485535        3.83562596586681       -0.54799275966834

          :  Hamiltonian                  GFN2-xTB          :
         :: gradient norm              0.000577656330 Eh/a0 ::
         :: HOMO-LUMO gap             10.522696989656 eV    ::
         :: SCC energy               -11.137135642624 Eh    ::
         :: -> dispersion             -0.003602789306 Eh    ::
         :: repulsion energy           0.097784517351 Eh    ::

    * Orbital Energies and Occupations

         #    Occupation            Energy/Eh            Energy/eV
      -------------------------------------------------------------
         1        2.0000           -0.4046074             -11.0099
         2        2.0000           -0.3813759             -10.3778
         3        2.0000           -0.3375664              -9.1857
         4        2.0000           -0.3017842              -8.2120
         5        2.0000           -0.2956535              -8.0451
         6        2.0000           -0.2561502              -6.9702
         7        2.0000           -0.2457999              -6.6886
         8        2.0000           -0.2136514              -5.8138
         9        2.0000           -0.0908851              -2.4731
        10        2.0000           -0.0876572              -2.3853 (HOMO)
        11                          0.2990448               8.1374 (LUMO)
        12                          0.3060688               8.3286
        13                          0.3196020               8.6968
        14                          0.3537564               9.6262
        15                          0.3904975              10.6260
        16                          0.4205052              11.4425
        17                          0.6248701              17.0036
      -------------------------------------------------------------
                  HL-Gap            0.3867020 Eh           10.5227 eV

     #   Z          covCN         q      C6AA      α(0)
     1   8 O        0.855    -0.765    30.552     7.411
     2   6 C        3.639     0.204    17.713     6.053
     3   6 C        3.742    -0.093    22.349     6.745
     4   1 H        0.908    -0.141     7.271     4.218
     5   1 H        0.908    -0.141     7.270     4.218
     6   1 H        0.925    -0.011     3.265     2.826
     7   1 H        0.924    -0.040     3.850     3.069
     8   1 H        0.925    -0.012     3.265     2.826

Wiberg/Mayer (AO) data.
largest (>0.10) Wiberg bond orders for each atom

     #   Z sym  total        # sym  WBO       # sym  WBO       # sym  WBO
 ---------------------------------------------------------------------------
     1   8 O    1.444 --     2 C    1.236
     2   6 C    3.974 --     1 O    1.236     3 C    0.926     5 H    0.906
                             4 H    0.906
     3   6 C    3.975 --     8 H    0.992     6 H    0.992     7 H    0.990
                             2 C    0.926
     4   1 H    0.980 --     2 C    0.906
     5   1 H    0.980 --     2 C    0.906
     6   1 H    1.000 --     3 C    0.992
     7   1 H    0.998 --     3 C    0.990
     8   1 H    1.000 --     3 C    0.992
 ---------------------------------------------------------------------------

molecular dipole:
                 x           y           z       tot (Debye)
 q only:        2.712      -7.519       1.983
   full:        2.495      -7.857       2.221      21.700

 projected vibrational frequencies (cm⁻¹)
eigval :       -0.00    -0.00    -0.00     0.00     0.00     0.00
eigval :      221.39   426.41   779.37   816.31   996.52  1137.17
eigval :     1235.77  1294.05  1340.99  1387.93  1504.00  1508.32
eigval :     1521.72  1981.71  2237.17  2920.89  2983.41  2993.23

   temp. (K)  partition function   enthalpy   heat capacity  entropy
                                   cal/mol     cal/K/mol   cal/K/mol   J/K/mol
 298.15  VIB   1.86                  682.723      5.967      3.528
         ROT  0.153E+05              888.752      2.981     22.127
         INT  0.285E+05             1571.475      8.948     25.654
         TR   0.293E+27             1481.254      4.968     37.325
         TOT                        3052.7293    13.9159    62.9790   263.5043

       T/K    H(0)-H(T)+PV         H(T)/Eh          T*S/Eh         G(T)/Eh
   ------------------------------------------------------------------------
    298.15    0.486483E-02    0.670278E-01    0.299234E-01    0.371044E-01
   ------------------------------------------------------------------------

         :::::::::::::::::::::::::::::::::::::::::::::::::::::
         ::                  THERMODYNAMIC                  ::
         :::::::::::::::::::::::::::::::::::::::::::::::::::::
         :: total free energy         -11.002246730038 Eh   ::
         ::.................................................::
         :: total energy              -11.039351125273 Eh   ::
         :: zero point energy           0.062162931387 Eh   ::
         :: G(RRHO) w/o ZPVE           -0.025058536152 Eh   ::
         :: G(RRHO) contrib.            0.037104395235 Eh   ::
         :::::::::::::::::::::::::::::::::::::::::::::::::::::

           -------------------------------------------------
          | TOTAL ENERGY              -11.039351125273 Eh   |
          | TOTAL ENTHALPY            -10.972323360079 Eh   |
          | TOTAL FREE ENERGY         -11.002246730038 Eh   |
          | GRADIENT NORM               0.000577649095 Eh/α |
          | HOMO-LUMO GAP              10.522696686457 eV   |
           -------------------------------------------------

 * finished run on 2025/10/17 at 22:45:23.992
normal termination of xtb
