   * xtb version 6.7.1 (edcfbbe) compiled by 'albert@albert-system' on 2024-07-22

   ID    Z sym.   atoms
    1    8 O      1, 9
    2    6 C      2, 3
    3    1 H      4-8, 10, 11

          program call               : xtb tb_lite_results_shiftn0p3_gp13_b0_rot0_complex.xyz --ohess --chrg -1 --alpb water
      * Solvation model:               ALPB
        Solvent                        water
        Solvent mass                       1.8000E+01 g/mol
          :  Hamiltonian                  GFN2-xTB          :
 * total energy  :   -16.2521555 Eh     change       -0.7801759E-11 Eh
 * total energy  :   -16.2567743 Eh     change       -0.4618780E-02 Eh
 * total energy  :   -16.2571116 Eh     change       -0.3372843E-03 Eh
 * total energy  :   -16.2571880 Eh     change       -0.7642913E-04 Eh
 * total energy  :   -16.2572896 Eh     change       -0.1015537E-03 Eh
 * total energy  :   -16.2573191 Eh     change       -0.2951210E-04 Eh
 * total energy  :   -16.2573245 Eh     change       -0.5365556E-05 Eh
 * total energy  :   -16.2573263 Eh     change       -0.1820230E-05 Eh
 * total energy  :   -16.2573279 Eh     change       -0.1630372E-05 Eh
   *** GEOMETRY OPTIMIZATION CONVERGED AFTER 9 ITERATIONS ***

 final structure:
================
11
 xtb: 6.7.1 (edcfbbe)
O           -1.19579070313983        4.43389071740974       -1.35242267417126
C           -1.60532297722404        3.40959078532087       -0.56798984508144
C           -3.07656741031359        2.99381122975283       -0.76007235481953
H           -0.97092361301557        2.49458229479688       -0.73383899315418
H           -1.46162428709670        3.67530846771536        0.51332595434737
H           -3.22413308453313        2.70022546303258       -1.79674088549063
H           -3.32123360862768        2.16476601526511       -0.10060847491541
H           -3.72086655344583        3.84255349479603       -0.54307391152762
O           -1.73911224684806        3.94560437869994       -3.79431260603327
H           -1.50012579042920        4.11943720840409       -2.80292645251623
H           -1.83338735673466        4.82867838600294       -4.16373098106569

          :  Hamiltonian                  GFN2-xTB          :
         :: gradient norm              0.000676562208 Eh/a0 ::
         :: HOMO-LUMO gap             12.057079569034 eV    ::
         :: SCC energy               -16.384230419153 Eh    ::
         :: -> dispersion             -0.004892263102 Eh    ::
         :: -> Gsolv                  -0.119183863243 Eh    ::
         :: repulsion energy           0.126902512470 Eh    ::

    * Orbital Energies and Occupations

         #    Occupation            Energy/Eh            Energy/eV
      -------------------------------------------------------------
         1        2.0000           -0.6363879             -17.3170
         2        2.0000           -0.6099221             -16.5968
         3        2.0000           -0.5865609             -15.9611
         4        2.0000           -0.5496897             -14.9578
         5        2.0000           -0.5158658             -14.0374
         6        2.0000           -0.4929158             -13.4129
         7        2.0000           -0.4818747             -13.1125
         8        2.0000           -0.4738031             -12.8928
         9        2.0000           -0.4533505             -12.3363
        10        2.0000           -0.4386375             -11.9359
        11        2.0000           -0.4292845             -11.6814
        12        2.0000           -0.4000898             -10.8870
        13        2.0000           -0.3249708              -8.8429
        14        2.0000           -0.3237575              -8.8099 (HOMO)
        15                          0.1193321               3.2472 (LUMO)
        16                          0.1316051               3.5812
        17                          0.1430390               3.8923
        18                          0.1551606               4.2221
        19                          0.1876905               5.1073
        20                          0.2107433               5.7346
        21                          0.2634211               7.1681
        22                          0.2784721               7.5776
        23                          0.3356460               9.1334
      -------------------------------------------------------------
                  HL-Gap            0.4430896 Eh           12.0571 eV

     #   Z          covCN         q      C6AA      α(0)
     1   8 O        0.869    -0.831    32.523     7.646
     2   6 C        3.665     0.166    18.174     6.114
     3   6 C        3.748    -0.110    22.665     6.790
     4   1 H        0.919    -0.093     5.313     3.605
     5   1 H        0.919    -0.087     5.120     3.539
     6   1 H        0.925     0.031     2.571     2.508
     7   1 H        0.925     0.021     2.723     2.581
     8   1 H        0.925     0.026     2.648     2.545
     9   8 O        1.594    -0.740    28.802     7.243
    10   1 H        0.804     0.293     0.743     1.354
    11   1 H        0.805     0.324     0.654     1.270

Wiberg/Mayer (AO) data.
largest (>0.10) Wiberg bond orders for each atom

     #   Z sym  total        # sym  WBO       # sym  WBO       # sym  WBO
 ---------------------------------------------------------------------------
     1   8 O    1.440 --     2 C    1.101    10 H    0.157
     2   6 C    3.982 --     1 O    1.101     3 C    0.984     5 H    0.950
                             4 H    0.946
     3   6 C    3.998 --     8 H    0.990     7 H    0.990     6 H    0.988
                             2 C    0.984
     4   1 H    0.991 --     2 C    0.946
     5   1 H    0.992 --     2 C    0.950
     6   1 H    0.999 --     3 C    0.988
     7   1 H    1.000 --     3 C    0.990
     8   1 H    0.999 --     3 C    0.990
     9   8 O    1.723 --    11 H    0.894    10 H    0.753
    10   1 H    0.914 --     9 O    0.753     1 O    0.157
    11   1 H    0.895 --     9 O    0.894
 ---------------------------------------------------------------------------

molecular dipole:
                 x           y           z       tot (Debye)
 q only:        2.402      -7.406       3.218
   full:        2.374      -7.444       3.475      21.735

 projected vibrational frequencies (cm⁻¹)
eigval :       -0.00    -0.00    -0.00     0.00     0.00     0.00
eigval :       59.64    91.44   109.14   236.10   344.80   443.44
eigval :      626.72   819.07   912.57   997.26  1044.72  1121.91
eigval :     1157.27  1299.52  1351.69  1381.46  1478.02  1503.74
eigval :     1506.91  1561.74  2136.06  2438.89  2588.81  3006.23
eigval :     3020.65  3031.08  3622.25

   temp. (K)  partition function   enthalpy   heat capacity  entropy
                                   cal/mol     cal/K/mol   cal/K/mol   J/K/mol
 298.15  VIB   62.9                 2419.108     14.143     15.903
         ROT  0.782E+05              888.752      2.981     25.371
         INT  0.492E+07             3307.861     17.124     41.275
         TR   0.485E+27             1481.254      4.968     38.327
         TOT                        4789.1147    22.0925    79.6015   333.0527

       T/K    H(0)-H(T)+PV         H(T)/Eh          T*S/Eh         G(T)/Eh
   ------------------------------------------------------------------------
    298.15    0.763194E-02    0.939543E-01    0.378212E-01    0.561331E-01
   ------------------------------------------------------------------------

         :::::::::::::::::::::::::::::::::::::::::::::::::::::
         ::                  THERMODYNAMIC                  ::
         :::::::::::::::::::::::::::::::::::::::::::::::::::::
         :: total free energy         -16.201194814419 Eh   ::
         ::.................................................::
         :: total energy              -16.257327906304 Eh   ::
         :: zero point energy           0.086322391078 Eh   ::
         :: G(RRHO) w/o ZPVE           -0.030189299193 Eh   ::
         :: G(RRHO) contrib.            0.056133091885 Eh   ::
         :::::::::::::::::::::::::::::::::::::::::::::::::::::

           -------------------------------------------------
          | TOTAL ENERGY              -16.257327906304 Eh   |
          | TOTAL ENTHALPY            -16.163373575184 Eh   |
          | TOTAL FREE ENERGY         -16.201194814419 Eh   |
          | GRADIENT NORM               0.000676530556 Eh/α |
          | HOMO-LUMO GAP              12.057082287245 eV   |
           -------------------------------------------------

 * finished run on 2025/10/17 at 22:45:23.594
normal termination of xtb
