   * xtb version 6.7.1 (edcfbbe) compiled by 'albert@albert-system' on 2024-07-22

   ID    Z sym.   atoms
    1    8 O      1, 9
    2    6 C      2, 3
    3    1 H      4-8, 10, 11

          program call               : xtb tb_lite_results_shiftn0p25_gp13_b0_rot0_complex.xyz --ohess --chrg -1 --alpb water
      * Solvation model:               ALPB
        Solvent                        water
        Solvent mass                       1.8000E+01 g/mol
          :  Hamiltonian                  GFN2-xTB          :
 * total energy  :   -16.2528297 Eh     change       -0.8085976E-11 Eh
 * total energy  :   -16.2566279 Eh     change       -0.3798212E-02 Eh
 * total energy  :   -16.2569860 Eh     change       -0.3580965E-03 Eh
 * total energy  :   -16.2571367 Eh     change       -0.1507051E-03 Eh
 * total energy  :   -16.2572925 Eh     change       -0.1558346E-03 Eh
 * total energy  :   -16.2573138 Eh     change       -0.2128701E-04 Eh
 * total energy  :   -16.2573214 Eh     change       -0.7541539E-05 Eh
 * total energy  :   -16.2573248 Eh     change       -0.3449488E-05 Eh
 * total energy  :   -16.2573271 Eh     change       -0.2261120E-05 Eh
   *** GEOMETRY OPTIMIZATION CONVERGED AFTER 9 ITERATIONS ***

 final structure:
================
11
 xtb: 6.7.1 (edcfbbe)
O           -1.19696893674957        4.43145682698704       -1.37586450575850
C           -1.60329250190229        3.41218438325565       -0.58236607703931
C           -3.07487546771804        2.99517727292508       -0.76710785837902
H           -0.96926188108965        2.49658742828521       -0.74454403874638
H           -1.45584582328600        3.68607571991337        0.49612095188631
H           -3.22548061965370        2.69366099156675       -1.80109783904094
H           -3.31856638895417        2.17134812654336       -0.10055242706787
H           -3.71822773388669        3.84595497504130       -0.55501389872064
O           -1.75407383565029        3.92901840518346       -3.81102013598774
H           -1.51029419168571        4.10930672988092       -2.82122229708761
H           -1.84996759610723        4.80991023629564       -4.18449170375110

          :  Hamiltonian                  GFN2-xTB          :
         :: gradient norm              0.000911821400 Eh/a0 ::
         :: HOMO-LUMO gap             12.060624080251 eV    ::
         :: SCC energy               -16.384211661098 Eh    ::
         :: -> dispersion             -0.004891515691 Eh    ::
         :: -> Gsolv                  -0.119161454277 Eh    ::
         :: repulsion energy           0.126884587786 Eh    ::

    * Orbital Energies and Occupations

         #    Occupation            Energy/Eh            Energy/eV
      -------------------------------------------------------------
         1        2.0000           -0.6362889             -17.3143
         2        2.0000           -0.6098917             -16.5960
         3        2.0000           -0.5865564             -15.9610
         4        2.0000           -0.5497087             -14.9583
         5        2.0000           -0.5157366             -14.0339
         6        2.0000           -0.4928882             -13.4122
         7        2.0000           -0.4818659             -13.1122
         8        2.0000           -0.4738120             -12.8931
         9        2.0000           -0.4533153             -12.3353
        10        2.0000           -0.4386164             -11.9354
        11        2.0000           -0.4292392             -11.6802
        12        2.0000           -0.3999647             -10.8836
        13        2.0000           -0.3250110              -8.8440
        14        2.0000           -0.3237850              -8.8106 (HOMO)
        15                          0.1194349               3.2500 (LUMO)
        16                          0.1318076               3.5867
        17                          0.1431384               3.8950
        18                          0.1553499               4.2273
        19                          0.1877475               5.1089
        20                          0.2105041               5.7281
        21                          0.2635377               7.1712
        22                          0.2783227               7.5735
        23                          0.3350203               9.1164
      -------------------------------------------------------------
                  HL-Gap            0.4432199 Eh           12.0606 eV

     #   Z          covCN         q      C6AA      α(0)
     1   8 O        0.869    -0.831    32.520     7.646
     2   6 C        3.665     0.165    18.179     6.115
     3   6 C        3.748    -0.110    22.663     6.790
     4   1 H        0.919    -0.092     5.300     3.600
     5   1 H        0.919    -0.086     5.105     3.534
     6   1 H        0.925     0.031     2.571     2.507
     7   1 H        0.925     0.021     2.723     2.581
     8   1 H        0.925     0.026     2.648     2.545
     9   8 O        1.593    -0.740    28.814     7.244
    10   1 H        0.804     0.293     0.743     1.354
    11   1 H        0.805     0.323     0.654     1.271

Wiberg/Mayer (AO) data.
largest (>0.10) Wiberg bond orders for each atom

     #   Z sym  total        # sym  WBO       # sym  WBO       # sym  WBO
 ---------------------------------------------------------------------------
     1   8 O    1.440 --     2 C    1.100    10 H    0.157
     2   6 C    3.982 --     1 O    1.100     3 C    0.984     5 H    0.950
                             4 H    0.946
     3   6 C    3.998 --     8 H    0.990     7 H    0.990     6 H    0.988
                             2 C    0.984
     4   1 H    0.991 --     2 C    0.946
     5   1 H    0.993 --     2 C    0.950
     6   1 H    0.999 --     3 C    0.988
     7   1 H    1.000 --     3 C    0.990
     8   1 H    0.999 --     3 C    0.990
     9   8 O    1.722 --    11 H    0.895    10 H    0.752
    10   1 H    0.914 --     9 O    0.752     1 O    0.157
    11   1 H    0.895 --     9 O    0.895
 ---------------------------------------------------------------------------

molecular dipole:
                 x           y           z       tot (Debye)
 q only:        2.409      -7.399       3.261
   full:        2.381      -7.435       3.518      21.765

 projected vibrational frequencies (cm⁻¹)
eigval :       -0.00    -0.00    -0.00    -0.00     0.00     0.00
eigval :       54.02    77.53   106.10   235.28   345.19   443.85
eigval :      626.72   819.32   912.74   999.36  1045.03  1121.04
eigval :     1157.26  1299.07  1351.58  1381.45  1477.71  1503.60
eigval :     1506.43  1561.80  2127.17  2442.40  2591.03  3004.71
eigval :     3020.08  3030.60  3626.17

   temp. (K)  partition function   enthalpy   heat capacity  entropy
                                   cal/mol     cal/K/mol   cal/K/mol   J/K/mol
 298.15  VIB   80.2                 2447.249     13.994     16.264
         ROT  0.781E+05              888.752      2.981     25.370
         INT  0.627E+07             3336.002     16.975     41.633
         TR   0.485E+27             1481.254      4.968     38.327
         TOT                        4817.2557    21.9435    79.9604   334.5543

       T/K    H(0)-H(T)+PV         H(T)/Eh          T*S/Eh         G(T)/Eh
   ------------------------------------------------------------------------
    298.15    0.767679E-02    0.939448E-01    0.379918E-01    0.559530E-01
   ------------------------------------------------------------------------

         :::::::::::::::::::::::::::::::::::::::::::::::::::::
         ::                  THERMODYNAMIC                  ::
         :::::::::::::::::::::::::::::::::::::::::::::::::::::
         :: total free energy         -16.201374075408 Eh   ::
         ::.................................................::
         :: total energy              -16.257327072944 Eh   ::
         :: zero point energy           0.086267978510 Eh   ::
         :: G(RRHO) w/o ZPVE           -0.030314980974 Eh   ::
         :: G(RRHO) contrib.            0.055952997536 Eh   ::
         :::::::::::::::::::::::::::::::::::::::::::::::::::::

           -------------------------------------------------
          | TOTAL ENERGY              -16.257327072944 Eh   |
          | TOTAL ENTHALPY            -16.163382308817 Eh   |
          | TOTAL FREE ENERGY         -16.201374075408 Eh   |
          | GRADIENT NORM               0.000911759434 Eh/α |
          | HOMO-LUMO GAP              12.060627531920 eV   |
           -------------------------------------------------

 * finished run on 2025/10/17 at 22:45:15.262
normal termination of xtb
