   * xtb version 6.7.1 (edcfbbe) compiled by 'albert@albert-system' on 2024-07-22

   ID    Z sym.   atoms
    1    8 O      1, 9
    2    6 C      2, 3
    3    1 H      4-8, 10, 11

          program call               : xtb tb_lite_results_shiftn0p2_gp13_b0_rot0_complex.xyz --ohess --chrg -1 --alpb water
      * Solvation model:               ALPB
        Solvent                        water
        Solvent mass                       1.8000E+01 g/mol
          :  Hamiltonian                  GFN2-xTB          :
 * total energy  :   -16.2530886 Eh     change       -0.9030998E-11 Eh
 * total energy  :   -16.2564084 Eh     change       -0.3319784E-02 Eh
 * total energy  :   -16.2568555 Eh     change       -0.4471270E-03 Eh
 * total energy  :   -16.2571208 Eh     change       -0.2653670E-03 Eh
 * total energy  :   -16.2572767 Eh     change       -0.1558688E-03 Eh
 * total energy  :   -16.2573064 Eh     change       -0.2968550E-04 Eh
 * total energy  :   -16.2573201 Eh     change       -0.1365916E-04 Eh
 * total energy  :   -16.2573234 Eh     change       -0.3378517E-05 Eh
 * total energy  :   -16.2573265 Eh     change       -0.3030630E-05 Eh
   *** GEOMETRY OPTIMIZATION CONVERGED AFTER 9 ITERATIONS ***

 final structure:
================
11
 xtb: 6.7.1 (edcfbbe)
O           -1.19949449024046        4.42688407941891       -1.39451241822604
C           -1.60650559244952        3.41282894410223       -0.59498879444235
C           -3.07855369344332        2.99533455268578       -0.77750205640464
H           -0.97290288086652        2.49592328499115       -0.75107562715532
H           -1.45942332118939        3.69340512855981        0.48180802035255
H           -3.22873887578884        2.68711268990754       -1.80945285591282
H           -3.32248470180986        2.17618892375591       -0.10549048350716
H           -3.72133126993962        3.84786795704779       -0.57118816950750
O           -1.75639524983612        3.91781846088964       -3.82804815139188
H           -1.51200743798867        4.10003698118774       -2.83820986317380
H           -1.84678480840607        4.79951274801271       -4.20326803558873

          :  Hamiltonian                  GFN2-xTB          :
         :: gradient norm              0.000944849023 Eh/a0 ::
         :: HOMO-LUMO gap             12.053752157699 eV    ::
         :: SCC energy               -16.384071077462 Eh    ::
         :: -> dispersion             -0.004889521343 Eh    ::
         :: -> Gsolv                  -0.119131613740 Eh    ::
         :: repulsion energy           0.126744609377 Eh    ::

    * Orbital Energies and Occupations

         #    Occupation            Energy/Eh            Energy/eV
      -------------------------------------------------------------
         1        2.0000           -0.6361643             -17.3109
         2        2.0000           -0.6099522             -16.5976
         3        2.0000           -0.5865752             -15.9615
         4        2.0000           -0.5497410             -14.9592
         5        2.0000           -0.5155781             -14.0296
         6        2.0000           -0.4928972             -13.4124
         7        2.0000           -0.4818934             -13.1130
         8        2.0000           -0.4738830             -12.8950
         9        2.0000           -0.4533142             -12.3353
        10        2.0000           -0.4386578             -11.9365
        11        2.0000           -0.4292658             -11.6809
        12        2.0000           -0.3998913             -10.8816
        13        2.0000           -0.3250598              -8.8453
        14        2.0000           -0.3238518              -8.8125 (HOMO)
        15                          0.1191156               3.2413 (LUMO)
        16                          0.1315785               3.5804
        17                          0.1431204               3.8945
        18                          0.1551861               4.2228
        19                          0.1876302               5.1057
        20                          0.2104850               5.7276
        21                          0.2636114               7.1732
        22                          0.2774868               7.5508
        23                          0.3348866               9.1127
      -------------------------------------------------------------
                  HL-Gap            0.4429674 Eh           12.0538 eV

     #   Z          covCN         q      C6AA      α(0)
     1   8 O        0.870    -0.830    32.510     7.645
     2   6 C        3.665     0.165    18.179     6.115
     3   6 C        3.748    -0.110    22.665     6.790
     4   1 H        0.919    -0.092     5.300     3.600
     5   1 H        0.919    -0.086     5.104     3.533
     6   1 H        0.925     0.031     2.571     2.508
     7   1 H        0.925     0.021     2.722     2.580
     8   1 H        0.925     0.026     2.648     2.545
     9   8 O        1.593    -0.740    28.819     7.245
    10   1 H        0.804     0.293     0.744     1.355
    11   1 H        0.805     0.323     0.655     1.271

Wiberg/Mayer (AO) data.
largest (>0.10) Wiberg bond orders for each atom

     #   Z sym  total        # sym  WBO       # sym  WBO       # sym  WBO
 ---------------------------------------------------------------------------
     1   8 O    1.441 --     2 C    1.100    10 H    0.158
     2   6 C    3.982 --     1 O    1.100     3 C    0.984     5 H    0.950
                             4 H    0.946
     3   6 C    3.998 --     8 H    0.990     7 H    0.990     6 H    0.988
                             2 C    0.984
     4   1 H    0.991 --     2 C    0.946
     5   1 H    0.993 --     2 C    0.950
     6   1 H    0.999 --     3 C    0.988
     7   1 H    1.000 --     3 C    0.990
     8   1 H    0.999 --     3 C    0.990
     9   8 O    1.722 --    11 H    0.895    10 H    0.752
    10   1 H    0.914 --     9 O    0.752     1 O    0.158
    11   1 H    0.896 --     9 O    0.895
 ---------------------------------------------------------------------------

molecular dipole:
                 x           y           z       tot (Debye)
 q only:        2.418      -7.389       3.296
   full:        2.391      -7.424       3.553      21.784

 projected vibrational frequencies (cm⁻¹)
eigval :       -0.00    -0.00    -0.00    -0.00     0.00     0.00
eigval :       62.26   105.65   130.07   233.89   345.54   443.79
eigval :      632.80   819.05   912.48  1000.36  1044.51  1121.23
eigval :     1157.25  1299.08  1351.34  1381.10  1477.45  1503.34
eigval :     1506.43  1562.66  2121.16  2442.62  2591.17  3005.97
eigval :     3020.93  3031.53  3613.89

   temp. (K)  partition function   enthalpy   heat capacity  entropy
                                   cal/mol     cal/K/mol   cal/K/mol   J/K/mol
 298.15  VIB   47.7                 2373.593     14.190     15.297
         ROT  0.782E+05              888.752      2.981     25.371
         INT  0.373E+07             3262.346     17.171     40.668
         TR   0.485E+27             1481.254      4.968     38.327
         TOT                        4743.5996    22.1395    78.9954   330.5169

       T/K    H(0)-H(T)+PV         H(T)/Eh          T*S/Eh         G(T)/Eh
   ------------------------------------------------------------------------
    298.15    0.755941E-02    0.939419E-01    0.375333E-01    0.564087E-01
   ------------------------------------------------------------------------

         :::::::::::::::::::::::::::::::::::::::::::::::::::::
         ::                  THERMODYNAMIC                  ::
         :::::::::::::::::::::::::::::::::::::::::::::::::::::
         :: total free energy         -16.200917817583 Eh   ::
         ::.................................................::
         :: total energy              -16.257326467691 Eh   ::
         :: zero point energy           0.086382522355 Eh   ::
         :: G(RRHO) w/o ZPVE           -0.029973872247 Eh   ::
         :: G(RRHO) contrib.            0.056408650108 Eh   ::
         :::::::::::::::::::::::::::::::::::::::::::::::::::::

           -------------------------------------------------
          | TOTAL ENERGY              -16.257326467691 Eh   |
          | TOTAL ENTHALPY            -16.163384538158 Eh   |
          | TOTAL FREE ENERGY         -16.200917817583 Eh   |
          | GRADIENT NORM               0.000944952506 Eh/α |
          | HOMO-LUMO GAP              12.053756155787 eV   |
           -------------------------------------------------

 * finished run on 2025/10/17 at 22:45:21.251
normal termination of xtb
