   * xtb version 6.7.1 (edcfbbe) compiled by 'albert@albert-system' on 2024-07-22

   ID    Z sym.   atoms
    1    8 O      1, 9
    2    6 C      2, 3
    3    1 H      4-8, 10, 11

          program call               : xtb tb_lite_results_shiftn0p2_gp13_b0_rot270_complex.xyz --ohess --chrg -1 --alpb water
      * Solvation model:               ALPB
        Solvent                        water
        Solvent mass                       1.8000E+01 g/mol
          :  Hamiltonian                  GFN2-xTB          :
 * total energy  :   -16.2528816 Eh     change       -0.9276135E-11 Eh
 * total energy  :   -16.2562193 Eh     change       -0.3337729E-02 Eh
 * total energy  :   -16.2566649 Eh     change       -0.4455532E-03 Eh
 * total energy  :   -16.2569496 Eh     change       -0.2846936E-03 Eh
 * total energy  :   -16.2571252 Eh     change       -0.1756334E-03 Eh
 * total energy  :   -16.2571615 Eh     change       -0.3627700E-04 Eh
 * total energy  :   -16.2571762 Eh     change       -0.1469877E-04 Eh
 * total energy  :   -16.2571771 Eh     change       -0.8773155E-06 Eh
 * total energy  :   -16.2571884 Eh     change       -0.1133029E-04 Eh
 * total energy  :   -16.2571970 Eh     change       -0.8549326E-05 Eh
 * total energy  :   -16.2431648 Eh     change        0.1408394E-01 Eh
 * total energy  :   -16.2560770 Eh     change       -0.1291214E-01 Eh
 * total energy  :   -16.2570317 Eh     change       -0.9547657E-03 Eh
 * total energy  :   -16.2571949 Eh     change       -0.1631248E-03 Eh
 * total energy  :   -16.2572641 Eh     change       -0.6924627E-04 Eh
 * total energy  :   -16.2572923 Eh     change       -0.2819759E-04 Eh
 * total energy  :   -16.2572738 Eh     change        0.1853218E-04 Eh
 * total energy  :   -16.2572998 Eh     change       -0.2598341E-04 Eh
 * total energy  :   -16.2573028 Eh     change       -0.3048727E-05 Eh
   *** GEOMETRY OPTIMIZATION CONVERGED AFTER 24 ITERATIONS ***

 final structure:
================
11
 xtb: 6.7.1 (edcfbbe)
O           -1.17369392521888        4.38716376840904       -1.42075078055532
C           -1.60004733355582        3.40134356489326       -0.59616442748734
C           -3.08599600346085        3.02317192064910       -0.75240271531100
H           -0.99660023923924        2.46331660272684       -0.74308176894383
H           -1.43086785649218        3.69772168469539        0.47312217506417
H           -3.26247107341425        2.72347570213994       -1.78270382289191
H           -3.33814684602940        2.20792340493606       -0.07892056820243
H           -3.70274215154577        3.89109865615224       -0.53224152776304
O           -1.61372406698955        3.73196904415324       -3.84093044849075
H           -1.45463924423620        3.99592171622715       -2.85133198785684
H           -0.97942140197980        4.26935991130711       -4.32518121860833

          :  Hamiltonian                  GFN2-xTB          :
         :: gradient norm              0.000376665290 Eh/a0 ::
         :: HOMO-LUMO gap             12.030545539104 eV    ::
         :: SCC energy               -16.384086015248 Eh    ::
         :: -> dispersion             -0.004870617147 Eh    ::
         :: -> Gsolv                  -0.119017875550 Eh    ::
         :: repulsion energy           0.126783215281 Eh    ::

    * Orbital Energies and Occupations

         #    Occupation            Energy/Eh            Energy/eV
      -------------------------------------------------------------
         1        2.0000           -0.6360897             -17.3089
         2        2.0000           -0.6099669             -16.5980
         3        2.0000           -0.5864481             -15.9581
         4        2.0000           -0.5496431             -14.9566
         5        2.0000           -0.5160045             -14.0412
         6        2.0000           -0.4927551             -13.4085
         7        2.0000           -0.4817781             -13.1098
         8        2.0000           -0.4734178             -12.8824
         9        2.0000           -0.4533539             -12.3364
        10        2.0000           -0.4381535             -11.9228
        11        2.0000           -0.4293734             -11.6838
        12        2.0000           -0.3998792             -10.8813
        13        2.0000           -0.3252163              -8.8496
        14        2.0000           -0.3240559              -8.8180 (HOMO)
        15                          0.1180585               3.2125 (LUMO)
        16                          0.1315173               3.5788
        17                          0.1431869               3.8963
        18                          0.1567433               4.2652
        19                          0.1885138               5.1297
        20                          0.2102479               5.7211
        21                          0.2636872               7.1753
        22                          0.2780165               7.5652
        23                          0.3350389               9.1169
      -------------------------------------------------------------
                  HL-Gap            0.4421145 Eh           12.0305 eV

     #   Z          covCN         q      C6AA      α(0)
     1   8 O        0.871    -0.829    32.478     7.641
     2   6 C        3.665     0.165    18.188     6.117
     3   6 C        3.748    -0.110    22.665     6.790
     4   1 H        0.919    -0.090     5.225     3.575
     5   1 H        0.919    -0.086     5.090     3.529
     6   1 H        0.925     0.030     2.582     2.513
     7   1 H        0.925     0.021     2.711     2.575
     8   1 H        0.925     0.025     2.662     2.551
     9   8 O        1.593    -0.741    28.840     7.247
    10   1 H        0.805     0.292     0.745     1.356
    11   1 H        0.805     0.322     0.657     1.273

Wiberg/Mayer (AO) data.
largest (>0.10) Wiberg bond orders for each atom

     #   Z sym  total        # sym  WBO       # sym  WBO       # sym  WBO
 ---------------------------------------------------------------------------
     1   8 O    1.443 --     2 C    1.100    10 H    0.160
     2   6 C    3.983 --     1 O    1.100     3 C    0.984     5 H    0.950
                             4 H    0.947
     3   6 C    3.998 --     8 H    0.991     7 H    0.990     6 H    0.989
                             2 C    0.984
     4   1 H    0.992 --     2 C    0.947
     5   1 H    0.993 --     2 C    0.950
     6   1 H    0.999 --     3 C    0.989
     7   1 H    1.000 --     3 C    0.990
     8   1 H    0.999 --     3 C    0.991
     9   8 O    1.721 --    11 H    0.895    10 H    0.750
    10   1 H    0.915 --     9 O    0.750     1 O    0.160
    11   1 H    0.896 --     9 O    0.895
 ---------------------------------------------------------------------------

molecular dipole:
                 x           y           z       tot (Debye)
 q only:        2.747      -7.453       3.285
   full:        2.820      -7.524       3.526      22.303

 projected vibrational frequencies (cm⁻¹)
eigval :       -0.00    -0.00    -0.00     0.00     0.00     0.00
eigval :       63.08    70.64   117.10   231.58   351.35   439.33
eigval :      647.83   819.20   912.92  1002.16  1042.16  1120.87
eigval :     1157.73  1299.86  1351.45  1381.41  1476.82  1503.26
eigval :     1506.39  1569.43  2108.45  2447.33  2592.66  3007.43
eigval :     3022.50  3032.53  3620.61

   temp. (K)  partition function   enthalpy   heat capacity  entropy
                                   cal/mol     cal/K/mol   cal/K/mol   J/K/mol
 298.15  VIB   70.3                 2426.216     14.044     16.091
         ROT  0.784E+05              888.752      2.981     25.376
         INT  0.551E+07             3314.968     17.025     41.467
         TR   0.485E+27             1481.254      4.968     38.327
         TOT                        4796.2223    21.9932    79.7944   333.8599

       T/K    H(0)-H(T)+PV         H(T)/Eh          T*S/Eh         G(T)/Eh
   ------------------------------------------------------------------------
    298.15    0.764327E-02    0.939769E-01    0.379129E-01    0.560640E-01
   ------------------------------------------------------------------------

         :::::::::::::::::::::::::::::::::::::::::::::::::::::
         ::                  THERMODYNAMIC                  ::
         :::::::::::::::::::::::::::::::::::::::::::::::::::::
         :: total free energy         -16.201238841403 Eh   ::
         ::.................................................::
         :: total energy              -16.257302800071 Eh   ::
         :: zero point energy           0.086333604004 Eh   ::
         :: G(RRHO) w/o ZPVE           -0.030269645336 Eh   ::
         :: G(RRHO) contrib.            0.056063958668 Eh   ::
         :::::::::::::::::::::::::::::::::::::::::::::::::::::

           -------------------------------------------------
          | TOTAL ENERGY              -16.257302800071 Eh   |
          | TOTAL ENTHALPY            -16.163325929245 Eh   |
          | TOTAL FREE ENERGY         -16.201238841403 Eh   |
          | GRADIENT NORM               0.000376659246 Eh/α |
          | HOMO-LUMO GAP              12.030546782042 eV   |
           -------------------------------------------------

 * finished run on 2025/10/17 at 22:45:26.114
normal termination of xtb
