   * xtb version 6.7.1 (edcfbbe) compiled by 'albert@albert-system' on 2024-07-22

   ID    Z sym.   atoms
    1    8 O      1, 9
    2    6 C      2, 3
    3    1 H      4-8, 10, 11

          program call               : xtb tb_lite_results_shiftn0p25_gp13_b0_rot270_complex.xyz --ohess --chrg -1 --alpb water
      * Solvation model:               ALPB
        Solvent                        water
        Solvent mass                       1.8000E+01 g/mol
          :  Hamiltonian                  GFN2-xTB          :
 * total energy  :   -16.2526141 Eh     change       -0.8416379E-11 Eh
 * total energy  :   -16.2564369 Eh     change       -0.3822884E-02 Eh
 * total energy  :   -16.2567955 Eh     change       -0.3586052E-03 Eh
 * total energy  :   -16.2569606 Eh     change       -0.1650427E-03 Eh
 * total energy  :   -16.2571393 Eh     change       -0.1786652E-03 Eh
 * total energy  :   -16.2571697 Eh     change       -0.3042171E-04 Eh
 * total energy  :   -16.2571791 Eh     change       -0.9454151E-05 Eh
 * total energy  :   -16.2571861 Eh     change       -0.7004676E-05 Eh
 * total energy  :   -16.2571895 Eh     change       -0.3377445E-05 Eh
 * total energy  :   -16.2572023 Eh     change       -0.1282939E-04 Eh
 * total energy  :   -16.2572150 Eh     change       -0.1265118E-04 Eh
 * total energy  :   -16.2572295 Eh     change       -0.1452282E-04 Eh
 * total energy  :   -16.2572361 Eh     change       -0.6623146E-05 Eh
 * total energy  :   -16.2572191 Eh     change        0.1700896E-04 Eh
 * total energy  :   -16.2572603 Eh     change       -0.4118377E-04 Eh
 * total energy  :   -16.2572710 Eh     change       -0.1071355E-04 Eh
 * total energy  :   -16.2572740 Eh     change       -0.2935064E-05 Eh
 * total energy  :   -16.2572915 Eh     change       -0.1750377E-04 Eh
 * total energy  :   -16.2572961 Eh     change       -0.4665140E-05 Eh
   *** GEOMETRY OPTIMIZATION CONVERGED AFTER 19 ITERATIONS ***

 final structure:
================
11
 xtb: 6.7.1 (edcfbbe)
O           -1.15622814821791        4.37061387617999       -1.40587369635952
C           -1.59708048299739        3.38769949435967       -0.58477640912802
C           -3.08984805209313        3.03644467887212       -0.73650491937190
H           -1.00993706905309        2.44063920202404       -0.73810138751072
H           -1.41822388464342        3.67587932711102        0.48477408997866
H           -3.27449130988487        2.73754846325324       -1.76541731309215
H           -3.35517578817459        2.22793453353611       -0.06010170396934
H           -3.68972971886108        3.91620210675137       -0.51714927045648
O           -1.61765140302122        3.75876017288271       -3.83399032135179
H           -1.45239749766226        4.00456048402996       -2.84109194154433
H           -0.94981944227782        4.26395098260802       -4.30758561297646

          :  Hamiltonian                  GFN2-xTB          :
         :: gradient norm              0.000674515165 Eh/a0 ::
         :: HOMO-LUMO gap             12.034619319611 eV    ::
         :: SCC energy               -16.384203344865 Eh    ::
         :: -> dispersion             -0.004864939949 Eh    ::
         :: -> Gsolv                  -0.119027023040 Eh    ::
         :: repulsion energy           0.126907216973 Eh    ::

    * Orbital Energies and Occupations

         #    Occupation            Energy/Eh            Energy/eV
      -------------------------------------------------------------
         1        2.0000           -0.6361297             -17.3100
         2        2.0000           -0.6098368             -16.5945
         3        2.0000           -0.5864940             -15.9593
         4        2.0000           -0.5496892             -14.9578
         5        2.0000           -0.5158644             -14.0374
         6        2.0000           -0.4928976             -13.4124
         7        2.0000           -0.4818199             -13.1110
         8        2.0000           -0.4734861             -12.8842
         9        2.0000           -0.4533664             -12.3367
        10        2.0000           -0.4382095             -11.9243
        11        2.0000           -0.4292665             -11.6809
        12        2.0000           -0.3999372             -10.8828
        13        2.0000           -0.3251074              -8.8466
        14        2.0000           -0.3239159              -8.8142 (HOMO)
        15                          0.1183480               3.2204 (LUMO)
        16                          0.1317240               3.5844
        17                          0.1433704               3.9013
        18                          0.1567760               4.2661
        19                          0.1884044               5.1267
        20                          0.2104242               5.7259
        21                          0.2637881               7.1780
        22                          0.2779266               7.5628
        23                          0.3350218               9.1164
      -------------------------------------------------------------
                  HL-Gap            0.4422639 Eh           12.0346 eV

     #   Z          covCN         q      C6AA      α(0)
     1   8 O        0.870    -0.830    32.498     7.644
     2   6 C        3.665     0.164    18.190     6.117
     3   6 C        3.748    -0.110    22.664     6.790
     4   1 H        0.919    -0.090     5.224     3.575
     5   1 H        0.919    -0.086     5.085     3.527
     6   1 H        0.925     0.030     2.585     2.514
     7   1 H        0.925     0.022     2.709     2.574
     8   1 H        0.925     0.025     2.660     2.551
     9   8 O        1.593    -0.741    28.828     7.246
    10   1 H        0.804     0.292     0.745     1.356
    11   1 H        0.805     0.323     0.657     1.273

Wiberg/Mayer (AO) data.
largest (>0.10) Wiberg bond orders for each atom

     #   Z sym  total        # sym  WBO       # sym  WBO       # sym  WBO
 ---------------------------------------------------------------------------
     1   8 O    1.442 --     2 C    1.099    10 H    0.159
     2   6 C    3.983 --     1 O    1.099     3 C    0.984     5 H    0.950
                             4 H    0.947
     3   6 C    3.998 --     8 H    0.990     7 H    0.990     6 H    0.989
                             2 C    0.984
     4   1 H    0.992 --     2 C    0.947
     5   1 H    0.993 --     2 C    0.950
     6   1 H    0.999 --     3 C    0.989
     7   1 H    1.000 --     3 C    0.990
     8   1 H    0.999 --     3 C    0.990
     9   8 O    1.721 --    11 H    0.895    10 H    0.750
    10   1 H    0.915 --     9 O    0.750     1 O    0.159
    11   1 H    0.896 --     9 O    0.895
 ---------------------------------------------------------------------------

molecular dipole:
                 x           y           z       tot (Debye)
 q only:        2.745      -7.460       3.267
   full:        2.822      -7.539       3.509      22.321

 projected vibrational frequencies (cm⁻¹)
eigval :       -0.00    -0.00    -0.00    -0.00     0.00     0.00
eigval :       60.91    77.04   115.15   229.64   350.89   438.27
eigval :      638.03   818.14   912.62   997.57  1042.02  1120.06
eigval :     1157.34  1299.44  1351.18  1381.03  1476.48  1503.09
eigval :     1506.75  1563.80  2111.71  2449.71  2595.59  3008.24
eigval :     3023.65  3034.07  3620.56

   temp. (K)  partition function   enthalpy   heat capacity  entropy
                                   cal/mol     cal/K/mol   cal/K/mol   J/K/mol
 298.15  VIB   68.8                 2429.656     14.098     16.077
         ROT  0.786E+05              888.752      2.981     25.382
         INT  0.541E+07             3318.409     17.079     41.459
         TR   0.485E+27             1481.254      4.968     38.327
         TOT                        4799.6626    22.0467    79.7855   333.8226

       T/K    H(0)-H(T)+PV         H(T)/Eh          T*S/Eh         G(T)/Eh
   ------------------------------------------------------------------------
    298.15    0.764875E-02    0.939525E-01    0.379087E-01    0.560439E-01
   ------------------------------------------------------------------------

         :::::::::::::::::::::::::::::::::::::::::::::::::::::
         ::                  THERMODYNAMIC                  ::
         :::::::::::::::::::::::::::::::::::::::::::::::::::::
         :: total free energy         -16.201252258252 Eh   ::
         ::.................................................::
         :: total energy              -16.257296128108 Eh   ::
         :: zero point energy           0.086303796400 Eh   ::
         :: G(RRHO) w/o ZPVE           -0.030259926543 Eh   ::
         :: G(RRHO) contrib.            0.056043869856 Eh   ::
         :::::::::::::::::::::::::::::::::::::::::::::::::::::

           -------------------------------------------------
          | TOTAL ENERGY              -16.257296128108 Eh   |
          | TOTAL ENTHALPY            -16.163343582455 Eh   |
          | TOTAL FREE ENERGY         -16.201252258252 Eh   |
          | GRADIENT NORM               0.000674613329 Eh/α |
          | HOMO-LUMO GAP              12.034614278166 eV   |
           -------------------------------------------------

 * finished run on 2025/10/17 at 22:45:18.617
normal termination of xtb
