   * xtb version 6.7.1 (edcfbbe) compiled by 'albert@albert-system' on 2024-07-22

   ID    Z sym.   atoms
    1    6 C      1-5, 7, 9
    2    1 H      6, 8, 11-15
    3    8 O      10

          program call               : xtb xyz.xyz --alpb water --charge -1 --ohess
      * Solvation model:               ALPB
        Solvent                        water
        Solvent mass                       1.8000E+01 g/mol
          :  Hamiltonian                  GFN2-xTB          :
 * total energy  :   -22.8785726 Eh     change       -0.1065590E-08 Eh
 * total energy  :   -22.9032319 Eh     change       -0.2465926E-01 Eh
 * total energy  :   -22.9053968 Eh     change       -0.2164917E-02 Eh
 * total energy  :   -22.9055010 Eh     change       -0.1041257E-03 Eh
 * total energy  :   -22.9055097 Eh     change       -0.8699800E-05 Eh
 * total energy  :   -22.9055117 Eh     change       -0.2015802E-05 Eh
   *** GEOMETRY OPTIMIZATION CONVERGED AFTER 6 ITERATIONS ***

 final structure:
================
15
 xtb: 6.7.1 (edcfbbe)
C           -5.18116530242844       -6.30071453150805        2.94581273950436
C           -4.99344736232787       -5.04798370573649        3.51588057360570
C           -6.10584734720627       -7.31820273304177        3.55380218678330
C           -4.47528160026247       -6.58420859403219        1.78047967585622
C           -4.14614915865681       -4.11811960798795        2.95846834340522
H           -5.52749690231392       -4.79118808043467        4.42481820555018
C           -3.41471867863086       -4.38124034884381        1.77097067717595
H           -4.01473932121204       -3.14499966338690        3.42149297990754
C           -3.62437173741884       -5.66895231781630        1.20879841564120
O           -2.61851231590212       -3.51747614806304        1.24232728898264
H           -4.59984691466472       -7.55352998276790        1.30953260673536
H           -6.57294907369908       -6.91743121223480        4.45004853962441
H           -6.88781469709822       -7.59601501576598        2.84700820267347
H           -5.55822838367369       -8.22230801761293        3.82035931259992
H           -3.08316920450464       -5.91124704076720        0.29937725195451

          :  Hamiltonian                  GFN2-xTB          :
         :: gradient norm              0.000655560898 Eh/a0 ::
         :: HOMO-LUMO gap              3.364699477513 eV    ::
         :: SCC energy               -23.258123723550 Eh    ::
         :: -> dispersion             -0.012276519958 Eh    ::
         :: -> Gsolv                  -0.099686174014 Eh    ::
         :: repulsion energy           0.352612057065 Eh    ::

    * Orbital Energies and Occupations

         #    Occupation            Energy/Eh            Energy/eV
      -------------------------------------------------------------
         1        2.0000           -0.6165181             -16.7763
       ...           ...                  ...                  ...
         9        2.0000           -0.4763609             -12.9624
        10        2.0000           -0.4739310             -12.8963
        11        2.0000           -0.4709886             -12.8163
        12        2.0000           -0.4463398             -12.1455
        13        2.0000           -0.4443852             -12.0923
        14        2.0000           -0.4433332             -12.0637
        15        2.0000           -0.4375640             -11.9067
        16        2.0000           -0.3999426             -10.8830
        17        2.0000           -0.3986806             -10.8487
        18        2.0000           -0.3980824             -10.8324
        19        2.0000           -0.3673248              -9.9954
        20        2.0000           -0.3209125              -8.7325
        21        2.0000           -0.3075791              -8.3697 (HOMO)
        22                         -0.1839288              -5.0050 (LUMO)
        23                         -0.1609012              -4.3783
        24                         -0.0474680              -1.2917
        25                          0.1230889               3.3494
        26                          0.1427266               3.8838
        27                          0.1684945               4.5850
        28                          0.1884934               5.1292
        29                          0.2067763               5.6267
        30                          0.2136421               5.8135
        31                          0.2352451               6.4013
        32                          0.2487738               6.7695
       ...                                ...                  ...
        39                          0.7026164              19.1192
      -------------------------------------------------------------
                  HL-Gap            0.1236503 Eh            3.3647 eV

     #   Z          covCN         q      C6AA      α(0)
     1   6 C        2.964    -0.037    28.926     8.822
     2   6 C        2.920    -0.056    29.400     8.892
     3   6 C        3.756    -0.106    22.580     6.775
     4   6 C        2.921    -0.057    29.415     8.894
     5   6 C        2.917    -0.099    30.503     9.057
     6   1 H        0.925    -0.004     3.120     2.762
     7   6 C        2.833     0.159    24.558     8.121
     8   1 H        0.925    -0.029     3.623     2.977
     9   6 C        2.917    -0.098    30.473     9.052
    10   8 O        0.857    -0.745    29.958     7.338
    11   1 H        0.925    -0.002     3.090     2.749
    12   1 H        0.925     0.034     2.536     2.490
    13   1 H        0.925     0.035     2.516     2.481
    14   1 H        0.925     0.035     2.516     2.480
    15   1 H        0.925    -0.029     3.608     2.970

Wiberg/Mayer (AO) data.
largest (>0.10) Wiberg bond orders for each atom

     #   Z sym  total        # sym  WBO       # sym  WBO       # sym  WBO
 ---------------------------------------------------------------------------
     1   6 C    3.979 --     2 C    1.389     4 C    1.379     3 C    1.018
     2   6 C    3.988 --     5 C    1.487     1 C    1.389     6 H    0.968
     3   6 C    3.998 --     1 C    1.018    12 H    0.987    13 H    0.978
                            14 H    0.978
     4   6 C    3.989 --     9 C    1.498     1 C    1.379    11 H    0.970
     5   6 C    3.977 --     2 C    1.487     7 C    1.256     8 H    0.971
                            10 O    0.101
     6   1 H    1.000 --     2 C    0.968
     7   6 C    3.965 --    10 O    1.354     5 C    1.256     9 C    1.249
     8   1 H    0.999 --     5 C    0.971
     9   6 C    3.978 --     4 C    1.498     7 C    1.249    15 H    0.971
    10   8 O    1.644 --     7 C    1.354     5 C    0.101
    11   1 H    1.000 --     4 C    0.970
    12   1 H    0.999 --     3 C    0.987
    13   1 H    0.997 --     3 C    0.978
    14   1 H    0.997 --     3 C    0.978
    15   1 H    0.999 --     9 C    0.971
 ---------------------------------------------------------------------------

molecular dipole:
                 x           y           z       tot (Debye)
 q only:        5.916       7.685      -3.000
   full:        5.872       7.632      -2.973      25.616

 projected vibrational frequencies (cm⁻¹)
eigval :       -0.00    -0.00    -0.00     0.00     0.00     0.00
eigval :       13.83   130.20   305.55   310.95   372.38   437.58
eigval :      444.50   476.92   617.69   655.00   762.46   779.39
eigval :      843.14   870.68   889.74   904.59   997.43  1003.86
eigval :     1035.88  1126.25  1193.20  1234.12  1255.72  1315.38
eigval :     1371.23  1395.48  1434.35  1485.78  1490.92  1516.76
eigval :     1535.53  1623.29  2977.91  2983.42  2989.23  2995.56
eigval :     2999.99  3018.28  3032.14

   temp. (K)  partition function   enthalpy   heat capacity  entropy
                                   cal/mol     cal/K/mol   cal/K/mol   J/K/mol
 298.15  VIB   122.                 2795.703     19.970     16.378
         ROT  0.272E+06              888.752      2.981     27.846
         INT  0.331E+08             3684.456     22.951     44.224
         TR   0.107E+28             1481.254      4.968     39.905
         TOT                        5165.7095    27.9188    84.1297   351.9985

       T/K    H(0)-H(T)+PV         H(T)/Eh          T*S/Eh         G(T)/Eh
   ------------------------------------------------------------------------
    298.15    0.823208E-02    0.124023E+00    0.399727E-01    0.840502E-01
   ------------------------------------------------------------------------

         :::::::::::::::::::::::::::::::::::::::::::::::::::::
         ::                  THERMODYNAMIC                  ::
         :::::::::::::::::::::::::::::::::::::::::::::::::::::
         :: total free energy         -22.821461464504 Eh   ::
         ::.................................................::
         :: total energy              -22.905511665858 Eh   ::
         :: zero point energy           0.115790836621 Eh   ::
         :: G(RRHO) w/o ZPVE           -0.031740635267 Eh   ::
         :: G(RRHO) contrib.            0.084050201354 Eh   ::
         :::::::::::::::::::::::::::::::::::::::::::::::::::::

           -------------------------------------------------
          | TOTAL ENERGY              -22.905511665858 Eh   |
          | TOTAL ENTHALPY            -22.781488747212 Eh   |
          | TOTAL FREE ENERGY         -22.821461464504 Eh   |
          | GRADIENT NORM               0.000655577974 Eh/α |
          | HOMO-LUMO GAP               3.364697276841 eV   |
           -------------------------------------------------

 * finished run on 2025/10/18 at 02:51:46.616
