                         Program Version 5.0.4 -  RELEASE  -
|  1> !SP PBE D3BJ def2-TZVP CPCM(water)
|  2>
|  3> *xyz -1 1
|  4> N -4.977829 -1.457749 -2.584150
|  5> C -5.262634 -2.881313 -2.650855
|  6> O -4.511634 0.972818 -2.117955
|  7> H -4.689049 0.047843 -2.295370
|  8> H -3.572722 1.070863 -2.276953
|  9> *
| 10>
| 11>                          ****END OF INPUT****

CARTESIAN COORDINATES (ANGSTROEM)
---------------------------------
  N     -4.977829   -1.457749   -2.584150
  C     -5.262634   -2.881313   -2.650855
  O     -4.511634    0.972818   -2.117955
  H     -4.689049    0.047843   -2.295370
  H     -3.572722    1.070863   -2.276953

 Total Charge           Charge          ....   -1
 Multiplicity           Mult            ....    1
 Number of Electrons    NEL             ....   24
 Basis Dimension        Dim             ....  105

ORBITAL ENERGIES
----------------

  NO   OCC          E(Eh)            E(eV)
   0   2.0000     -18.702148      -508.9113
   1   2.0000     -13.967784      -380.0827
   2   2.0000      -9.917419      -269.8667
   3   2.0000      -0.891043       -24.2465
   4   2.0000      -0.684109       -18.6155
   5   2.0000      -0.462414       -12.5829
   6   2.0000      -0.373801       -10.1716
   7   2.0000      -0.305988        -8.3264
   8   2.0000      -0.239120        -6.5068
   9   2.0000      -0.224598        -6.1116
  10   2.0000      -0.219771        -5.9803
  11   2.0000      -0.216848        -5.9007
  12   0.0000      -0.041612        -1.1323
  13   0.0000      -0.041056        -1.1172
  14   0.0000       0.047415         1.2902
  15   0.0000       0.121995         3.3197
  16   0.0000       0.156807         4.2669

MULLIKEN ATOMIC CHARGES
-----------------------
   0 N :   -0.516271
   1 C :   -0.376997
   2 O :   -0.723561
   3 H :    0.290232
   4 H :    0.326598
Sum of atomic charges:   -1.0000000

LOEWDIN ATOMIC CHARGES
----------------------
   0 N :   -0.341420
   1 C :   -0.483689
   2 O :   -0.363645
   3 H :    0.042673
   4 H :    0.146081

  Mayer bond orders larger than 0.100000
B(  0-N ,  1-C ) :   2.6471 B(  0-N ,  3-H ) :   0.2202 B(  2-O ,  3-H ) :   0.8047
B(  2-O ,  4-H ) :   0.9017

Dispersion correction           -0.001799698
FINAL SINGLE POINT ENERGY      -169.197251958386

DIPOLE MOMENT
-------------
                                X             Y             Z
Electronic contribution:     -0.37437      -1.52590      -0.22794
Nuclear contribution   :      1.34859       2.70709       0.25339
                        -----------------------------------------
Total Dipole Moment    :      0.97422       1.18119       0.02545
                        -----------------------------------------
Magnitude (a.u.)       :      1.53133
Magnitude (Debye)      :      3.89232

Rotational constants in cm-1:    17.864867     0.140610     0.139830
Rotational constants in MHz : 535575.250142  4215.373944  4191.998876

                             ****ORCA TERMINATED NORMALLY****
TOTAL RUN TIME: 0 days 0 hours 0 minutes 12 seconds 569 msec
