   * xtb version 6.7.1 (edcfbbe) compiled by 'albert@albert-system' on 2024-07-22

   ID    Z sym.   atoms
    1    6 C      1-3, 5, 7, 9, 11
    2    1 H      4, 6, 8, 12-15
    3    8 O      10

          program call               : xtb xyz.xyz --charge -1 --ohess
          :  Hamiltonian                  GFN2-xTB          :
 * total energy  :   -22.8105751 Eh     change       -0.2313527E-10 Eh
 * total energy  :   -22.8137565 Eh     change       -0.3181337E-02 Eh
 * total energy  :   -22.8145026 Eh     change       -0.7461168E-03 Eh
 * total energy  :   -22.8145949 Eh     change       -0.9226460E-04 Eh
 * total energy  :   -22.8146156 Eh     change       -0.2075709E-04 Eh
 * total energy  :   -22.8146180 Eh     change       -0.2375702E-05 Eh
   *** GEOMETRY OPTIMIZATION CONVERGED AFTER 6 ITERATIONS ***

 final structure:
================
15
 xtb: 6.7.1 (edcfbbe)
C           -5.26290004612665       -6.50137804472222        2.93627346740864
C           -5.08014178012310       -5.24567248148102        3.49874074050367
C           -2.94447705747791       -6.28468136770964       -0.06491402383676
H           -4.69078528808631       -7.79481978082603        1.32676665203496
C           -4.22582746315259       -4.33302290308742        2.93008105234116
H           -5.62395838462431       -4.98265212430693        4.40517595954822
C           -3.48001151100931       -4.60759162210893        1.74252950090538
H           -4.09599017342443       -3.35578660382150        3.38460201550814
C           -3.69528485017122       -5.91978400150208        1.18767283256538
O           -2.69511474056046       -3.76701260665165        1.22142194415245
C           -4.55740589185005       -6.81275766379622        1.77960203428222
H           -5.93794986788290       -7.22199694299589        3.38594792166976
H           -2.33073346429214       -5.42956687228204       -0.34476872592722
H           -2.29488636565971       -7.15118803241476        0.09098864832736
H           -3.62396311555890       -6.51832595229366       -0.89003001948334

          :  Hamiltonian                  GFN2-xTB          :
         :: gradient norm              0.000426516629 Eh/a0 ::
         :: HOMO-LUMO gap              3.226996150200 eV    ::
         :: SCC energy               -23.164946308366 Eh    ::
         :: -> dispersion             -0.012701773434 Eh    ::
         :: repulsion energy           0.350328308249 Eh    ::

    * Orbital Energies and Occupations

         #    Occupation            Energy/Eh            Energy/eV
      -------------------------------------------------------------
         1        2.0000           -0.4534242             -12.3383
       ...           ...                  ...                  ...
         9        2.0000           -0.3279899              -8.9251
        10        2.0000           -0.3246387              -8.8339
        11        2.0000           -0.3163608              -8.6086
        12        2.0000           -0.2927450              -7.9660
        13        2.0000           -0.2864896              -7.7958
        14        2.0000           -0.2859412              -7.7809
        15        2.0000           -0.2803742              -7.6294
        16        2.0000           -0.2490679              -6.7775
        17        2.0000           -0.2489193              -6.7734
        18        2.0000           -0.2407939              -6.5523
        19        2.0000           -0.2086522              -5.6777
        20        2.0000           -0.1550405              -4.2189
        21        2.0000           -0.1460527              -3.9743 (HOMO)
        22                         -0.0274627              -0.7473 (LUMO)
        23                         -0.0030615              -0.0833
        24                          0.1084995               2.9524
        25                          0.2756100               7.4997
        26                          0.2873540               7.8193
        27                          0.3226483               8.7797
        28                          0.3269483               8.8967
        29                          0.3405797               9.2676
        30                          0.3684252              10.0254
        31                          0.3717275              10.1152
        32                          0.3992515              10.8642
       ...                                ...                  ...
        39                          0.8729275              23.7536
      -------------------------------------------------------------
                  HL-Gap            0.1185900 Eh            3.2270 eV

     #   Z          covCN         q      C6AA      α(0)
     1   6 C        2.914    -0.088    30.209     9.013
     2   6 C        2.913    -0.052    29.299     8.876
     3   6 C        3.755    -0.080    22.082     6.700
     4   1 H        0.925    -0.037     3.781     3.041
     5   6 C        2.916    -0.102    30.563     9.066
     6   1 H        0.925    -0.040     3.864     3.074
     7   6 C        2.832     0.176    24.209     8.063
     8   1 H        0.925    -0.023     3.486     2.920
     9   6 C        2.964    -0.063    29.554     8.917
    10   8 O        0.857    -0.615    26.492     6.901
    11   6 C        2.917    -0.057    29.405     8.892
    12   1 H        0.925    -0.044     3.945     3.106
    13   1 H        0.925     0.041     2.431     2.438
    14   1 H        0.924    -0.009     3.217     2.805
    15   1 H        0.924    -0.009     3.217     2.805

Wiberg/Mayer (AO) data.
largest (>0.10) Wiberg bond orders for each atom

     #   Z sym  total        # sym  WBO       # sym  WBO       # sym  WBO
 ---------------------------------------------------------------------------
     1   6 C    3.967 --     2 C    1.393    11 C    1.384    12 H    0.971
     2   6 C    3.986 --     5 C    1.505     1 C    1.393     6 H    0.969
     3   6 C    3.994 --     9 C    1.015    13 H    0.982    15 H    0.980
                            14 H    0.980
     4   1 H    0.999 --    11 C    0.968
     5   6 C    3.975 --     2 C    1.505     7 C    1.217     8 H    0.972
                            10 O    0.106
     6   1 H    0.998 --     2 C    0.969
     7   6 C    3.972 --    10 O    1.461     5 C    1.217     9 C    1.184
     8   1 H    0.999 --     5 C    0.972
     9   6 C    3.972 --    11 C    1.498     7 C    1.184     3 C    1.015
                            10 O    0.103
    10   8 O    1.791 --     7 C    1.461     5 C    0.106     9 C    0.103
    11   6 C    3.985 --     9 C    1.498     1 C    1.384     4 H    0.968
    12   1 H    0.998 --     1 C    0.971
    13   1 H    0.998 --     3 C    0.982
    14   1 H    1.000 --     3 C    0.980
    15   1 H    1.000 --     3 C    0.980
 ---------------------------------------------------------------------------

molecular dipole:
                 x           y           z       tot (Debye)
 q only:        6.872       9.123      -3.426
   full:        6.683       8.869      -3.333      29.469

 projected vibrational frequencies (cm⁻¹)
eigval :       -0.00    -0.00    -0.00     0.00     0.00     0.00
eigval :       78.63   146.86   253.22   282.43   399.79   432.10
eigval :      503.98   523.81   561.48   670.68   744.12   768.92
eigval :      811.26   847.30   881.70   902.09   983.91  1036.38
eigval :     1083.93  1121.51  1176.26  1198.09  1242.40  1321.32
eigval :     1374.46  1387.34  1482.95  1498.14  1499.21  1529.21
eigval :     1560.12  1619.39  2920.75  2939.39  2946.11  2951.84
eigval :     3000.00  3011.51  3014.02

   temp. (K)  partition function   enthalpy   heat capacity  entropy
                                   cal/mol     cal/K/mol   cal/K/mol   J/K/mol
 298.15  VIB   24.7                 2719.491     20.844     15.378
         ROT  0.270E+06              888.752      2.981     27.832
         INT  0.667E+07             3608.243     23.825     43.210
         TR   0.107E+28             1481.254      4.968     39.905
         TOT                        5089.4972    28.7931    83.1152   347.7538

       T/K    H(0)-H(T)+PV         H(T)/Eh          T*S/Eh         G(T)/Eh
   ------------------------------------------------------------------------
    298.15    0.811063E-02    0.123629E+00    0.394907E-01    0.841381E-01
   ------------------------------------------------------------------------

         :::::::::::::::::::::::::::::::::::::::::::::::::::::
         ::                  THERMODYNAMIC                  ::
         :::::::::::::::::::::::::::::::::::::::::::::::::::::
         :: total free energy         -22.730479926181 Eh   ::
         ::.................................................::
         :: total energy              -22.814618000120 Eh   ::
         :: zero point energy           0.115518138351 Eh   ::
         :: G(RRHO) w/o ZPVE           -0.031380064412 Eh   ::
         :: G(RRHO) contrib.            0.084138073939 Eh   ::
         :::::::::::::::::::::::::::::::::::::::::::::::::::::

           -------------------------------------------------
          | TOTAL ENERGY              -22.814618000120 Eh   |
          | TOTAL ENTHALPY            -22.690989231647 Eh   |
          | TOTAL FREE ENERGY         -22.730479926181 Eh   |
          | GRADIENT NORM               0.000426568452 Eh/α |
          | HOMO-LUMO GAP               3.226997466660 eV   |
           -------------------------------------------------

 * finished run on 2025/10/18 at 02:24:22.855
