   * xtb version 6.7.1 (edcfbbe) compiled by 'albert@albert-system' on 2024-07-22

   ID    Z sym.   atoms
    1    1 H      1, 4, 7-9, 11, 12
    2    6 C      2, 5, 6
    3    8 O      3, 10

          program call               : xtb tb_lite_results_shiftn0p2_gp168_b0_rot90_complex.xyz --ohess --chrg -1 --alpb water
      * Solvation model:               ALPB
        Solvent                        water
        Solvent mass                       1.8000E+01 g/mol
          :  Hamiltonian                  GFN2-xTB          :
 * total energy  :   -18.3573828 Eh     change       -0.2189893E-10 Eh
 * total energy  :   -18.3611653 Eh     change       -0.3782486E-02 Eh
 * total energy  :   -18.3616578 Eh     change       -0.4924915E-03 Eh
 * total energy  :   -18.3620042 Eh     change       -0.3464305E-03 Eh
 * total energy  :   -18.3621632 Eh     change       -0.1589207E-03 Eh
 * total energy  :   -18.3622079 Eh     change       -0.4477027E-04 Eh
 * total energy  :   -18.3622422 Eh     change       -0.3421784E-04 Eh
 * total energy  :   -18.3622758 Eh     change       -0.3365320E-04 Eh
 * total energy  :   -18.3623097 Eh     change       -0.3393258E-04 Eh
 * total energy  :   -18.3623068 Eh     change        0.2984495E-05 Eh
 * total energy  :   -18.3623518 Eh     change       -0.4503570E-04 Eh
 * total energy  :   -18.3623670 Eh     change       -0.1520395E-04 Eh
 * total energy  :   -18.3623892 Eh     change       -0.2225022E-04 Eh
 * total energy  :   -18.3623978 Eh     change       -0.8539016E-05 Eh
 * total energy  :   -18.3624127 Eh     change       -0.1492735E-04 Eh
 * total energy  :   -18.3624165 Eh     change       -0.3834550E-05 Eh
   *** GEOMETRY OPTIMIZATION CONVERGED AFTER 16 ITERATIONS ***

 final structure:
================
12
 xtb: 6.7.1 (edcfbbe)
H           -5.00570601924858       -2.59902023473309       -0.93851677158779
C           -4.21521142381687       -2.37910268105521       -2.95531348807818
O           -2.90580786967579       -2.38480868491312       -2.58694501846360
H           -6.70339880521979       -0.82605996316038       -1.05174524621850
C           -5.16422150233729       -2.01786501800676       -1.83837480256787
C           -6.06744930890261       -1.05770520388520       -1.88971740810144
H           -6.20470958461032       -0.46926132266644       -2.78268653787584
H           -4.37445008616060       -1.67352065951334       -3.80807832038820
H           -4.52775050752217       -3.39312051735809       -3.33807522979531
O           -2.57037179251526       -3.86679135632830       -0.54398441894152
H           -2.71716598599485       -3.28063310519967       -1.38544872092421
H           -1.70905421279221       -3.58802885997517       -0.21768894296844

          :  Hamiltonian                  GFN2-xTB          :
         :: gradient norm              0.000853691041 Eh/a0 ::
         :: HOMO-LUMO gap              3.581351220025 eV    ::
         :: SCC energy               -18.547296370844 Eh    ::
         :: -> dispersion             -0.006190355691 Eh    ::
         :: -> Gsolv                  -0.117779602541 Eh    ::
         :: repulsion energy           0.184879822877 Eh    ::

    * Orbital Energies and Occupations

         #    Occupation            Energy/Eh            Energy/eV
      -------------------------------------------------------------
         1        2.0000           -0.6371098             -17.3366
       ...           ...                  ...                  ...
         4        2.0000           -0.5644519             -15.3595
         5        2.0000           -0.5374893             -14.6258
         6        2.0000           -0.5147292             -14.0065
         7        2.0000           -0.4967734             -13.5179
         8        2.0000           -0.4815258             -13.1030
         9        2.0000           -0.4722213             -12.8498
        10        2.0000           -0.4628357             -12.5944
        11        2.0000           -0.4384103             -11.9298
        12        2.0000           -0.4266827             -11.6106
        13        2.0000           -0.4008751             -10.9084
        14        2.0000           -0.3944010             -10.7322
        15        2.0000           -0.3264937              -8.8843
        16        2.0000           -0.3248813              -8.8405 (HOMO)
        17                         -0.1932688              -5.2591 (LUMO)
        18                          0.1165944               3.1727
        19                          0.1201669               3.2699
        20                          0.1471880               4.0052
        21                          0.1659863               4.5167
        22                          0.1877438               5.1088
        23                          0.2216907               6.0325
        24                          0.2461559               6.6982
        25                          0.3145779               8.5601
        26                          0.4294783              11.6867
        27                          0.6356140              17.2959
      -------------------------------------------------------------
                  HL-Gap            0.1316124 Eh            3.5814 eV

     #   Z          covCN         q      C6AA      α(0)
     1   1 H        0.925     0.028     2.610     2.526
     2   6 C        3.671     0.160    18.236     6.121
     3   8 O        0.870    -0.827    32.404     7.632
     4   1 H        0.926     0.044     2.397     2.421
     5   6 C        2.883    -0.049    29.215     8.861
     6   6 C        2.836    -0.107    30.697     9.079
     7   1 H        0.926     0.030     2.582     2.513
     8   1 H        0.920    -0.073     4.697     3.389
     9   1 H        0.918    -0.081     4.945     3.478
    10   8 O        1.593    -0.741    28.827     7.246
    11   1 H        0.805     0.292     0.745     1.356
    12   1 H        0.805     0.322     0.657     1.273

Wiberg/Mayer (AO) data.
largest (>0.10) Wiberg bond orders for each atom

     #   Z sym  total        # sym  WBO       # sym  WBO       # sym  WBO
 ---------------------------------------------------------------------------
     1   1 H    0.999 --     5 C    0.966
     2   6 C    3.982 --     3 O    1.083     5 C    0.990     8 H    0.950
                             9 H    0.930
     3   8 O    1.442 --     2 C    1.083    11 H    0.160
     4   1 H    0.998 --     6 C    0.975
     5   6 C    3.985 --     6 C    1.979     2 C    0.990     1 H    0.966
     6   6 C    3.987 --     5 C    1.979     7 H    0.975     4 H    0.975
     7   1 H    0.999 --     6 C    0.975
     8   1 H    0.995 --     2 C    0.950
     9   1 H    0.993 --     2 C    0.930
    10   8 O    1.722 --    12 H    0.895    11 H    0.750
    11   1 H    0.915 --    10 O    0.750     3 O    0.160
    12   1 H    0.896 --    10 O    0.895
 ---------------------------------------------------------------------------

molecular dipole:
                 x           y           z       tot (Debye)
 q only:        6.142       5.336       4.302
   full:        6.082       5.413       4.120      23.194

 projected vibrational frequencies (cm⁻¹)
eigval :       -0.00    -0.00    -0.00    -0.00     0.00     0.00
eigval :      -36.61    54.20    78.39   115.23   303.40   379.79
eigval :      417.27   626.99   656.47   867.63   907.61   953.88
eigval :      994.85  1028.61  1066.54  1125.61  1251.98  1272.52
eigval :     1343.19  1406.02  1484.21  1563.90  1708.89  2118.25
eigval :     2440.38  2617.17  3049.51  3082.85  3101.09  3615.63

   temp. (K)  partition function   enthalpy   heat capacity  entropy
                                   cal/mol     cal/K/mol   cal/K/mol   J/K/mol
 298.15  VIB   68.2                 2483.489     15.314     16.084
         ROT  0.144E+06              888.752      2.981     26.583
         INT  0.981E+07             3372.241     18.295     42.666
         TR   0.630E+27             1481.254      4.968     38.846
         TOT                        4853.4950    23.2628    81.5126   341.0486

       T/K    H(0)-H(T)+PV         H(T)/Eh          T*S/Eh         G(T)/Eh
   ------------------------------------------------------------------------
    298.15    0.773454E-02    0.980230E-01    0.387293E-01    0.592938E-01
   ------------------------------------------------------------------------

         :::::::::::::::::::::::::::::::::::::::::::::::::::::
         ::                  THERMODYNAMIC                  ::
         :::::::::::::::::::::::::::::::::::::::::::::::::::::
         :: total free energy         -18.303122796290 Eh   ::
         ::.................................................::
         :: total energy              -18.362416547624 Eh   ::
         :: zero point energy           0.090288464772 Eh   ::
         :: G(RRHO) w/o ZPVE           -0.030994713438 Eh   ::
         :: G(RRHO) contrib.            0.059293751334 Eh   ::
         :::::::::::::::::::::::::::::::::::::::::::::::::::::

           -------------------------------------------------
          | TOTAL ENERGY              -18.362416547624 Eh   |
          | TOTAL ENTHALPY            -18.264393546270 Eh   |
          | TOTAL FREE ENERGY         -18.303122796290 Eh   |
          | GRADIENT NORM               0.000853268799 Eh/α |
          | HOMO-LUMO GAP               3.581356312745 eV   |
           -------------------------------------------------

 * finished run on 2025/10/18 at 01:02:44.840
normal termination of xtb
