   * xtb version 6.7.1 (edcfbbe) compiled by 'albert@albert-system' on 2024-07-22

   ID    Z sym.   atoms
    1    1 H      1, 4, 7-9, 11, 12
    2    6 C      2, 5, 6
    3    8 O      3, 10

          program call               : xtb tb_lite_results_shiftn0p25_gp146_b0_rot180_complex.xyz --ohess --chrg -1 --alpb water
      * Solvation model:               ALPB
        Solvent                        water
        Solvent mass                       1.8000E+01 g/mol
          :  Hamiltonian                  GFN2-xTB          :
 * total energy  :   -18.3549167 Eh     change       -0.3116618E-09 Eh
 * total energy  :   -18.3592798 Eh     change       -0.4363054E-02 Eh
 * total energy  :   -18.3596380 Eh     change       -0.3582146E-03 Eh
 * total energy  :   -18.3597898 Eh     change       -0.1517858E-03 Eh
 * total energy  :   -18.3599573 Eh     change       -0.1675022E-03 Eh
 * total energy  :   -18.3600106 Eh     change       -0.5335331E-04 Eh
 * total energy  :   -18.3600344 Eh     change       -0.2373611E-04 Eh
 * total energy  :   -18.3600623 Eh     change       -0.2792887E-04 Eh
 * total energy  :   -18.3600847 Eh     change       -0.2245988E-04 Eh
 * total energy  :   -18.3601283 Eh     change       -0.4359797E-04 Eh
 * total energy  :   -18.3615763 Eh     change       -0.2816873E-04 Eh
 * total energy  :   -18.3615948 Eh     change       -0.1850190E-04 Eh
 * total energy  :   -18.3615959 Eh     change       -0.1071698E-05 Eh
 * total energy  :   -18.3616125 Eh     change       -0.1664016E-04 Eh
 * total energy  :   -18.3616205 Eh     change       -0.7957081E-05 Eh
 * total energy  :   -18.3616316 Eh     change       -0.1111043E-04 Eh
 * total energy  :   -18.3616399 Eh     change       -0.8304427E-05 Eh
 * total energy  :   -18.3616478 Eh     change       -0.7879147E-05 Eh
 * total energy  :   -18.3616513 Eh     change       -0.3508610E-05 Eh
   *** GEOMETRY OPTIMIZATION CONVERGED AFTER 57 ITERATIONS ***

 final structure:
================
12
 xtb: 6.7.1 (edcfbbe)
H           -5.13747907181103       -2.18614791779912       -0.76835219327007
C           -4.27246756231299       -2.40835789162232       -2.75751271034615
O           -2.99789434651129       -2.12306957139833       -2.37693782506062
H           -7.01438636075645       -0.72949755423262       -1.38276871006896
C           -5.31609565756101       -1.89350812035881       -1.79565414340343
C           -6.31949731247718       -1.10036002062466       -2.11755486654718
H           -6.47430397574478       -0.78721663382631       -3.13683236666598
H           -4.49611055514950       -2.00551818193918       -3.77867964455442
H           -4.40491041813448       -3.52327480578660       -2.83496363954485
O           -2.66159175613634        0.40237388741557       -2.26118136043837
H           -2.80307814749704       -0.61621522153551       -2.33846470070712
H           -2.04668840078733        0.49395981426252       -1.52678608447250

          :  Hamiltonian                  GFN2-xTB          :
         :: gradient norm              0.000509802672 Eh/a0 ::
         :: HOMO-LUMO gap              3.588194733397 eV    ::
         :: SCC energy               -18.547103669272 Eh    ::
         :: -> dispersion             -0.006292904482 Eh    ::
         :: -> Gsolv                  -0.118297234805 Eh    ::
         :: repulsion energy           0.185452369471 Eh    ::

    * Orbital Energies and Occupations

         #    Occupation            Energy/Eh            Energy/eV
      -------------------------------------------------------------
         1        2.0000           -0.6374463             -17.3458
       ...           ...                  ...                  ...
         4        2.0000           -0.5645949             -15.3634
         5        2.0000           -0.5360910             -14.5878
         6        2.0000           -0.5179125             -14.0931
         7        2.0000           -0.4959856             -13.4965
         8        2.0000           -0.4762305             -12.9589
         9        2.0000           -0.4727003             -12.8628
        10        2.0000           -0.4687181             -12.7545
        11        2.0000           -0.4359382             -11.8625
        12        2.0000           -0.4276056             -11.6357
        13        2.0000           -0.4012475             -10.9185
        14        2.0000           -0.3941458             -10.7253
        15        2.0000           -0.3255261              -8.8580
        16        2.0000           -0.3249753              -8.8430 (HOMO)
        17                         -0.1931115              -5.2548 (LUMO)
        18                          0.1191082               3.2411
        19                          0.1250920               3.4039
        20                          0.1395870               3.7984
        21                          0.1666499               4.5348
        22                          0.1904389               5.1821
        23                          0.2182832               5.9398
        24                          0.2468979               6.7184
        25                          0.3144951               8.5578
        26                          0.4266811              11.6106
        27                          0.6358076              17.3012
      -------------------------------------------------------------
                  HL-Gap            0.1318638 Eh            3.5882 eV

     #   Z          covCN         q      C6AA      α(0)
     1   1 H        0.925     0.023     2.687     2.563
     2   6 C        3.671     0.160    18.232     6.120
     3   8 O        0.867    -0.829    32.459     7.639
     4   1 H        0.926     0.045     2.388     2.417
     5   6 C        2.883    -0.048    29.193     8.858
     6   6 C        2.836    -0.103    30.601     9.065
     7   1 H        0.926     0.029     2.600     2.521
     8   1 H        0.920    -0.078     4.851     3.444
     9   1 H        0.919    -0.078     4.859     3.447
    10   8 O        1.595    -0.737    28.735     7.234
    11   1 H        0.804     0.291     0.750     1.361
    12   1 H        0.805     0.326     0.647     1.264

Wiberg/Mayer (AO) data.
largest (>0.10) Wiberg bond orders for each atom

     #   Z sym  total        # sym  WBO       # sym  WBO       # sym  WBO
 ---------------------------------------------------------------------------
     1   1 H    0.999 --     5 C    0.968
     2   6 C    3.982 --     3 O    1.083     5 C    0.989     8 H    0.947
                             9 H    0.935
     3   8 O    1.438 --     2 C    1.083    11 H    0.154
     4   1 H    0.998 --     6 C    0.975
     5   6 C    3.986 --     6 C    1.979     2 C    0.989     1 H    0.968
     6   6 C    3.988 --     5 C    1.979     7 H    0.975     4 H    0.975
     7   1 H    0.999 --     6 C    0.975
     8   1 H    0.994 --     2 C    0.947
     9   1 H    0.994 --     2 C    0.935
    10   8 O    1.725 --    12 H    0.893    11 H    0.759
    11   1 H    0.916 --    10 O    0.759     3 O    0.154
    12   1 H    0.894 --    10 O    0.893
 ---------------------------------------------------------------------------

molecular dipole:
                 x           y           z       tot (Debye)
 q only:        6.170       3.003       5.043
   full:        6.083       2.772       5.045      21.286

 projected vibrational frequencies (cm⁻¹)
eigval :       -0.00    -0.00    -0.00    -0.00    -0.00     0.00
eigval :      -19.93    42.84    66.61   127.74   314.52   358.07
eigval :      414.76   619.34   645.35   867.09   906.81   954.76
eigval :     1001.71  1018.98  1065.89  1122.75  1252.30  1269.71
eigval :     1344.67  1404.96  1485.99  1554.81  1709.94  2180.95
eigval :     2465.68  2600.74  3038.98  3086.89  3106.11  3618.01

   temp. (K)  partition function   enthalpy   heat capacity  entropy
                                   cal/mol     cal/K/mol   cal/K/mol   J/K/mol
 298.15  VIB   985.                 3076.958     16.091     20.707
         ROT  0.145E+06              888.752      2.981     26.600
         INT  0.143E+09             3965.710     19.072     47.307
         TR   0.630E+27             1481.254      4.968     38.846
         TOT                        5446.9641    24.0400    86.1533   360.4656

       T/K    H(0)-H(T)+PV         H(T)/Eh          T*S/Eh         G(T)/Eh
   ------------------------------------------------------------------------
    298.15    0.868029E-02    0.990481E-01    0.409342E-01    0.581138E-01
   ------------------------------------------------------------------------

         :::::::::::::::::::::::::::::::::::::::::::::::::::::
         ::                  THERMODYNAMIC                  ::
         :::::::::::::::::::::::::::::::::::::::::::::::::::::
         :: total free energy         -18.303537468303 Eh   ::
         ::.................................................::
         :: total energy              -18.361651301162 Eh   ::
         :: zero point energy           0.090367778431 Eh   ::
         :: G(RRHO) w/o ZPVE           -0.032253945573 Eh   ::
         :: G(RRHO) contrib.            0.058113832858 Eh   ::
         :::::::::::::::::::::::::::::::::::::::::::::::::::::

           -------------------------------------------------
          | TOTAL ENERGY              -18.361651301162 Eh   |
          | TOTAL ENTHALPY            -18.262603232927 Eh   |
          | TOTAL FREE ENERGY         -18.303537468303 Eh   |
          | GRADIENT NORM               0.000509986814 Eh/α |
          | HOMO-LUMO GAP               3.588196240216 eV   |
           -------------------------------------------------

 * finished run on 2025/10/18 at 01:02:39.217
normal termination of xtb
