   * xtb version 6.7.1 (edcfbbe) compiled by 'albert@albert-system' on 2024-07-22

   ID    Z sym.   atoms
    1    1 H      1, 4, 7-9, 11, 12
    2    6 C      2, 5, 6
    3    8 O      3, 10

          program call               : xtb tb_lite_results_shiftn0p2_gp146_b0_rot180_complex.xyz --ohess --chrg -1 --alpb water
      * Solvation model:               ALPB
        Solvent                        water
        Solvent mass                       1.8000E+01 g/mol
          :  Hamiltonian                  GFN2-xTB          :
 * total energy  :   -18.3552242 Eh     change       -0.3176481E-09 Eh
 * total energy  :   -18.3590915 Eh     change       -0.3867350E-02 Eh
 * total energy  :   -18.3595227 Eh     change       -0.4311872E-03 Eh
 * total energy  :   -18.3597893 Eh     change       -0.2665999E-03 Eh
 * total energy  :   -18.3599758 Eh     change       -0.1865211E-03 Eh
 * total energy  :   -18.3600231 Eh     change       -0.4723423E-04 Eh
 * total energy  :   -18.3600556 Eh     change       -0.3258209E-04 Eh
 * total energy  :   -18.3600816 Eh     change       -0.2594803E-04 Eh
 * total energy  :   -18.3600920 Eh     change       -0.1041930E-04 Eh
 * total energy  :   -18.3601380 Eh     change       -0.4601962E-04 Eh
 * total energy  :   -18.3615849 Eh     change       -0.1817900E-04 Eh
 * total energy  :   -18.3616023 Eh     change       -0.1744902E-04 Eh
 * total energy  :   -18.3616141 Eh     change       -0.1181388E-04 Eh
 * total energy  :   -18.3615473 Eh     change        0.6686859E-04 Eh
 * total energy  :   -18.3616454 Eh     change       -0.9814804E-04 Eh
 * total energy  :   -18.3616440 Eh     change        0.1361786E-05 Eh
 * total energy  :   -18.3616528 Eh     change       -0.8782370E-05 Eh
 * total energy  :   -18.3616567 Eh     change       -0.3883208E-05 Eh
 * total energy  :   -18.3616608 Eh     change       -0.4076215E-05 Eh
   *** GEOMETRY OPTIMIZATION CONVERGED AFTER 59 ITERATIONS ***

 final structure:
================
12
 xtb: 6.7.1 (edcfbbe)
H           -5.11810442673885       -2.26310382646680       -0.82679681194492
C           -4.24470309812169       -2.35949831356196       -2.82237999925208
O           -2.97741990442521       -2.06439593458011       -2.42303731194541
H           -7.02622427130752       -0.81871956971593       -1.36853362744983
C           -5.30155524217575       -1.92060664686528       -1.83792038743342
C           -6.32210787362824       -1.13399769768331       -2.12043074872972
H           -6.48411620060261       -0.77190569101371       -3.12285709858592
H           -4.47548592251273       -1.90923766147246       -3.82175246564171
H           -4.34918223819790       -3.47130162635652       -2.95784032311403
O           -2.71577552858562        0.44849294250229       -2.10035049979929
H           -2.83025035967927       -0.56635442243142       -2.25898856119800
H           -2.07181115358776        0.49856483545762       -1.38703306466774

          :  Hamiltonian                  GFN2-xTB          :
         :: gradient norm              0.000633086493 Eh/a0 ::
         :: HOMO-LUMO gap              3.595337563714 eV    ::
         :: SCC energy               -18.546748251575 Eh    ::
         :: -> dispersion             -0.006296997714 Eh    ::
         :: -> Gsolv                  -0.118223685847 Eh    ::
         :: repulsion energy           0.185087460555 Eh    ::

    * Orbital Energies and Occupations

         #    Occupation            Energy/Eh            Energy/eV
      -------------------------------------------------------------
         1        2.0000           -0.6369634             -17.3327
       ...           ...                  ...                  ...
         4        2.0000           -0.5646942             -15.3661
         5        2.0000           -0.5360924             -14.5878
         6        2.0000           -0.5176141             -14.0850
         7        2.0000           -0.4958192             -13.4919
         8        2.0000           -0.4761663             -12.9571
         9        2.0000           -0.4725473             -12.8587
        10        2.0000           -0.4687603             -12.7556
        11        2.0000           -0.4359429             -11.8626
        12        2.0000           -0.4275293             -11.6337
        13        2.0000           -0.4007265             -10.9043
        14        2.0000           -0.3940106             -10.7216
        15        2.0000           -0.3258537              -8.8669
        16        2.0000           -0.3252205              -8.8497 (HOMO)
        17                         -0.1930943              -5.2544 (LUMO)
        18                          0.1191470               3.2422
        19                          0.1254541               3.4138
        20                          0.1386397               3.7726
        21                          0.1671117               4.5473
        22                          0.1900370               5.1712
        23                          0.2181321               5.9357
        24                          0.2459888               6.6937
        25                          0.3135346               8.5317
        26                          0.4263107              11.6005
        27                          0.6352358              17.2856
      -------------------------------------------------------------
                  HL-Gap            0.1321262 Eh            3.5953 eV

     #   Z          covCN         q      C6AA      α(0)
     1   1 H        0.925     0.023     2.685     2.563
     2   6 C        3.671     0.160    18.240     6.122
     3   8 O        0.869    -0.827    32.418     7.634
     4   1 H        0.926     0.045     2.389     2.417
     5   6 C        2.883    -0.048    29.188     8.857
     6   6 C        2.836    -0.103    30.597     9.065
     7   1 H        0.926     0.029     2.600     2.522
     8   1 H        0.920    -0.078     4.837     3.440
     9   1 H        0.919    -0.077     4.824     3.435
    10   8 O        1.594    -0.739    28.785     7.241
    11   1 H        0.804     0.290     0.751     1.361
    12   1 H        0.805     0.325     0.649     1.266

Wiberg/Mayer (AO) data.
largest (>0.10) Wiberg bond orders for each atom

     #   Z sym  total        # sym  WBO       # sym  WBO       # sym  WBO
 ---------------------------------------------------------------------------
     1   1 H    0.999 --     5 C    0.968
     2   6 C    3.982 --     3 O    1.082     5 C    0.989     8 H    0.947
                             9 H    0.936
     3   8 O    1.441 --     2 C    1.082    11 H    0.157
     4   1 H    0.998 --     6 C    0.975
     5   6 C    3.985 --     6 C    1.979     2 C    0.989     1 H    0.968
     6   6 C    3.988 --     5 C    1.979     7 H    0.975     4 H    0.975
     7   1 H    0.999 --     6 C    0.975
     8   1 H    0.994 --     2 C    0.947
     9   1 H    0.994 --     2 C    0.936
    10   8 O    1.723 --    12 H    0.893    11 H    0.755
    11   1 H    0.916 --    10 O    0.755     3 O    0.157
    12   1 H    0.894 --    10 O    0.893
 ---------------------------------------------------------------------------

molecular dipole:
                 x           y           z       tot (Debye)
 q only:        6.172       2.855       5.026
   full:        6.097       2.622       5.008      21.132

 projected vibrational frequencies (cm⁻¹)
eigval :       -0.00    -0.00     0.00     0.00     0.00     0.00
eigval :       36.91    57.97   113.54   129.03   315.59   363.59
eigval :      415.31   629.88   649.37   866.77   907.79   954.83
eigval :     1004.14  1020.71  1064.19  1122.78  1251.71  1269.53
eigval :     1343.92  1405.61  1485.87  1560.10  1709.22  2149.04
eigval :     2470.80  2602.57  3037.01  3083.81  3102.10  3619.58

   temp. (K)  partition function   enthalpy   heat capacity  entropy
                                   cal/mol     cal/K/mol   cal/K/mol   J/K/mol
 298.15  VIB   271.                 2965.246     16.699     19.436
         ROT  0.145E+06              888.752      2.981     26.592
         INT  0.392E+08             3853.998     19.680     46.029
         TR   0.630E+27             1481.254      4.968     38.846
         TOT                        5335.2519    24.6481    84.8750   355.1170

       T/K    H(0)-H(T)+PV         H(T)/Eh          T*S/Eh         G(T)/Eh
   ------------------------------------------------------------------------
    298.15    0.850227E-02    0.990442E-01    0.403269E-01    0.587173E-01
   ------------------------------------------------------------------------

         :::::::::::::::::::::::::::::::::::::::::::::::::::::
         ::                  THERMODYNAMIC                  ::
         :::::::::::::::::::::::::::::::::::::::::::::::::::::
         :: total free energy         -18.302943463238 Eh   ::
         ::.................................................::
         :: total energy              -18.361660791504 Eh   ::
         :: zero point energy           0.090541917443 Eh   ::
         :: G(RRHO) w/o ZPVE           -0.031824589177 Eh   ::
         :: G(RRHO) contrib.            0.058717328266 Eh   ::
         :::::::::::::::::::::::::::::::::::::::::::::::::::::

           -------------------------------------------------
          | TOTAL ENERGY              -18.361660791504 Eh   |
          | TOTAL ENTHALPY            -18.262616609019 Eh   |
          | TOTAL FREE ENERGY         -18.302943463238 Eh   |
          | GRADIENT NORM               0.000633171666 Eh/α |
          | HOMO-LUMO GAP               3.595335756776 eV   |
           -------------------------------------------------

 * finished run on 2025/10/18 at 01:02:41.242
normal termination of xtb
