   * xtb version 6.7.1 (edcfbbe) compiled by 'albert@albert-system' on 2024-07-22

   ID    Z sym.   atoms
    1    1 H      1, 4, 7-9, 11, 12
    2    6 C      2, 5, 6
    3    8 O      3, 10

          program call               : xtb tb_lite_results_shiftn0p25_gp168_b0_rot180_complex.xyz --ohess --chrg -1 --alpb water
      * Solvation model:               ALPB
        Solvent                        water
        Solvent mass                       1.8000E+01 g/mol
          :  Hamiltonian                  GFN2-xTB          :
 * total energy  :   -18.3568186 Eh     change       -0.1642064E-10 Eh
 * total energy  :   -18.3611846 Eh     change       -0.4365994E-02 Eh
 * total energy  :   -18.3615781 Eh     change       -0.3934530E-03 Eh
 * total energy  :   -18.3617814 Eh     change       -0.2032910E-03 Eh
 * total energy  :   -18.3619850 Eh     change       -0.2036231E-03 Eh
 * total energy  :   -18.3620384 Eh     change       -0.5340083E-04 Eh
 * total energy  :   -18.3620798 Eh     change       -0.4138290E-04 Eh
 * total energy  :   -18.3621224 Eh     change       -0.4264657E-04 Eh
 * total energy  :   -18.3621660 Eh     change       -0.4362366E-04 Eh
 * total energy  :   -18.3622135 Eh     change       -0.4749297E-04 Eh
 * total energy  :   -18.3623948 Eh     change       -0.1222723E-06 Eh
 * total energy  :   -18.3624013 Eh     change       -0.6508391E-05 Eh
 * total energy  :   -18.3624030 Eh     change       -0.1645356E-05 Eh
 * total energy  :   -18.3624050 Eh     change       -0.2087482E-05 Eh
 * total energy  :   -18.3624147 Eh     change       -0.9627634E-05 Eh
 * total energy  :   -18.3624212 Eh     change       -0.6545530E-05 Eh
 * total energy  :   -18.3624182 Eh     change        0.3043208E-05 Eh
 * total energy  :   -18.3624302 Eh     change       -0.1201831E-04 Eh
 * total energy  :   -18.3624338 Eh     change       -0.3636510E-05 Eh
   *** GEOMETRY OPTIMIZATION CONVERGED AFTER 36 ITERATIONS ***

 final structure:
================
12
 xtb: 6.7.1 (edcfbbe)
H           -5.06002637708329       -2.73166701773884       -1.05488538376858
C           -4.21382011182760       -2.33027909032111       -3.01966342647559
O           -2.91373203021687       -2.41132919595337       -2.62905090198670
H           -6.69267570854988       -0.89267525181156       -1.01623128992966
C           -5.17705862290812       -2.05345756338340       -1.89074208901848
C           -6.04399120136264       -1.05943012665214       -1.85996290003479
H           -6.13719015172894       -0.37638934962857       -2.68888343246160
H           -4.33474977650585       -1.53883854568618       -3.80073187533777
H           -4.54599686928951       -3.29154069304054       -3.50811552939337
O           -2.63410207053560       -4.10246684787556       -0.74452184964892
H           -2.76535945655369       -3.41646899797368       -1.50842678897729
H           -1.67898831600844       -4.15481177398453       -0.64592260064856

          :  Hamiltonian                  GFN2-xTB          :
         :: gradient norm              0.000371348885 Eh/a0 ::
         :: HOMO-LUMO gap              3.580817183196 eV    ::
         :: SCC energy               -18.547444678269 Eh    ::
         :: -> dispersion             -0.006178636129 Eh    ::
         :: -> Gsolv                  -0.117768386435 Eh    ::
         :: repulsion energy           0.185010844003 Eh    ::

    * Orbital Energies and Occupations

         #    Occupation            Energy/Eh            Energy/eV
      -------------------------------------------------------------
         1        2.0000           -0.6372788             -17.3412
       ...           ...                  ...                  ...
         4        2.0000           -0.5644244             -15.3588
         5        2.0000           -0.5375254             -14.6268
         6        2.0000           -0.5146096             -14.0032
         7        2.0000           -0.4968790             -13.5208
         8        2.0000           -0.4817109             -13.1080
         9        2.0000           -0.4722995             -12.8519
        10        2.0000           -0.4626568             -12.5895
        11        2.0000           -0.4384728             -11.9315
        12        2.0000           -0.4264349             -11.6039
        13        2.0000           -0.4011735             -10.9165
        14        2.0000           -0.3942681             -10.7286
        15        2.0000           -0.3264149              -8.8822
        16        2.0000           -0.3247751              -8.8376 (HOMO)
        17                         -0.1931824              -5.2568 (LUMO)
        18                          0.1161389               3.1603
        19                          0.1201675               3.2699
        20                          0.1481035               4.0301
        21                          0.1656368               4.5072
        22                          0.1876926               5.1074
        23                          0.2217433               6.0339
        24                          0.2469154               6.7189
        25                          0.3155293               8.5860
        26                          0.4294057              11.6847
        27                          0.6355837              17.2951
      -------------------------------------------------------------
                  HL-Gap            0.1315927 Eh            3.5808 eV

     #   Z          covCN         q      C6AA      α(0)
     1   1 H        0.925     0.028     2.620     2.531
     2   6 C        3.671     0.160    18.234     6.121
     3   8 O        0.870    -0.827    32.414     7.634
     4   1 H        0.926     0.044     2.399     2.422
     5   6 C        2.883    -0.049    29.214     8.861
     6   6 C        2.836    -0.107    30.693     9.079
     7   1 H        0.926     0.031     2.577     2.511
     8   1 H        0.920    -0.073     4.706     3.393
     9   1 H        0.918    -0.081     4.948     3.479
    10   8 O        1.593    -0.740    28.807     7.243
    11   1 H        0.804     0.292     0.745     1.356
    12   1 H        0.805     0.323     0.656     1.272

Wiberg/Mayer (AO) data.
largest (>0.10) Wiberg bond orders for each atom

     #   Z sym  total        # sym  WBO       # sym  WBO       # sym  WBO
 ---------------------------------------------------------------------------
     1   1 H    0.999 --     5 C    0.966
     2   6 C    3.982 --     3 O    1.083     5 C    0.990     8 H    0.950
                             9 H    0.930
     3   8 O    1.441 --     2 C    1.083    11 H    0.158
     4   1 H    0.998 --     6 C    0.975
     5   6 C    3.985 --     6 C    1.979     2 C    0.990     1 H    0.966
     6   6 C    3.987 --     5 C    1.979     7 H    0.975     4 H    0.975
     7   1 H    0.999 --     6 C    0.975
     8   1 H    0.995 --     2 C    0.950
     9   1 H    0.993 --     2 C    0.930
    10   8 O    1.722 --    12 H    0.895    11 H    0.751
    11   1 H    0.915 --    10 O    0.751     3 O    0.158
    12   1 H    0.896 --    10 O    0.895
 ---------------------------------------------------------------------------

molecular dipole:
                 x           y           z       tot (Debye)
 q only:        6.234       5.262       4.328
   full:        6.194       5.317       4.113      23.233

 projected vibrational frequencies (cm⁻¹)
eigval :       -0.00    -0.00     0.00     0.00     0.00     0.00
eigval :       48.59    80.85   106.84   115.02   304.49   378.21
eigval :      416.43   623.40   663.26   868.00   907.79   953.91
eigval :      988.68  1027.94  1066.93  1125.66  1252.21  1272.32
eigval :     1343.94  1406.10  1484.44  1566.86  1708.31  2128.51
eigval :     2436.37  2614.38  3050.77  3082.88  3100.97  3626.73

   temp. (K)  partition function   enthalpy   heat capacity  entropy
                                   cal/mol     cal/K/mol   cal/K/mol   J/K/mol
 298.15  VIB   182.                 2941.169     17.123     19.374
         ROT  0.144E+06              888.752      2.981     26.586
         INT  0.262E+08             3829.922     20.104     45.960
         TR   0.630E+27             1481.254      4.968     38.846
         TOT                        5311.1757    25.0722    84.8062   354.8290

       T/K    H(0)-H(T)+PV         H(T)/Eh          T*S/Eh         G(T)/Eh
   ------------------------------------------------------------------------
    298.15    0.846390E-02    0.990228E-01    0.402942E-01    0.587287E-01
   ------------------------------------------------------------------------

         :::::::::::::::::::::::::::::::::::::::::::::::::::::
         ::                  THERMODYNAMIC                  ::
         :::::::::::::::::::::::::::::::::::::::::::::::::::::
         :: total free energy         -18.303705157300 Eh   ::
         ::.................................................::
         :: total energy              -18.362433834799 Eh   ::
         :: zero point energy           0.090558930517 Eh   ::
         :: G(RRHO) w/o ZPVE           -0.031830253018 Eh   ::
         :: G(RRHO) contrib.            0.058728677499 Eh   ::
         :::::::::::::::::::::::::::::::::::::::::::::::::::::

           -------------------------------------------------
          | TOTAL ENERGY              -18.362433834799 Eh   |
          | TOTAL ENTHALPY            -18.263411007126 Eh   |
          | TOTAL FREE ENERGY         -18.303705157300 Eh   |
          | GRADIENT NORM               0.000371242955 Eh/α |
          | HOMO-LUMO GAP               3.580818637363 eV   |
           -------------------------------------------------

 * finished run on 2025/10/18 at 01:02:46.834
normal termination of xtb
