   * xtb version 6.7.1 (edcfbbe) compiled by 'albert@albert-system' on 2024-07-22

   ID    Z sym.   atoms
    1    1 H      1, 4, 7-9, 11, 12
    2    6 C      2, 5, 6
    3    8 O      3, 10

          program call               : xtb tb_lite_results_shiftn0p25_gp168_b0_rot90_complex.xyz --ohess --chrg -1 --alpb water
      * Solvation model:               ALPB
        Solvent                        water
        Solvent mass                       1.8000E+01 g/mol
          :  Hamiltonian                  GFN2-xTB          :
 * total energy  :   -18.3571291 Eh     change       -0.1736566E-10 Eh
 * total energy  :   -18.3613758 Eh     change       -0.4246745E-02 Eh
 * total energy  :   -18.3617774 Eh     change       -0.4016140E-03 Eh
 * total energy  :   -18.3619959 Eh     change       -0.2184437E-03 Eh
 * total energy  :   -18.3621709 Eh     change       -0.1750024E-03 Eh
 * total energy  :   -18.3622135 Eh     change       -0.4264726E-04 Eh
 * total energy  :   -18.3622442 Eh     change       -0.3069523E-04 Eh
 * total energy  :   -18.3622766 Eh     change       -0.3236435E-04 Eh
 * total energy  :   -18.3622983 Eh     change       -0.2172185E-04 Eh
 * total energy  :   -18.3623342 Eh     change       -0.3594259E-04 Eh
 * total energy  :   -18.3623604 Eh     change       -0.2618608E-04 Eh
 * total energy  :   -18.3623779 Eh     change       -0.1744026E-04 Eh
 * total energy  :   -18.3623876 Eh     change       -0.9710475E-05 Eh
 * total energy  :   -18.3623844 Eh     change        0.3134101E-05 Eh
 * total energy  :   -18.3624037 Eh     change       -0.1929363E-04 Eh
 * total energy  :   -18.3624092 Eh     change       -0.5474072E-05 Eh
 * total energy  :   -18.3624117 Eh     change       -0.2464097E-05 Eh
   *** GEOMETRY OPTIMIZATION CONVERGED AFTER 17 ITERATIONS ***

 final structure:
================
12
 xtb: 6.7.1 (edcfbbe)
H           -5.00351964737535       -2.55863139198003       -0.93402781167827
C           -4.23224289828402       -2.41341674616565       -2.96468451408135
O           -2.91875238320078       -2.41544683166864       -2.61074717778829
H           -6.68316851860109       -0.77131178286582       -1.08792521176515
C           -5.16550927410303       -2.00557130596643       -1.85081516751629
C           -6.05885546957688       -1.03755423036556       -1.92436276884708
H           -6.19939408167532       -0.47728690020600       -2.83473206433852
H           -4.39565692871094       -1.73706546381313       -3.83992973865857
H           -4.55574034407053       -3.43772743176119       -3.30780193214400
O           -2.56083661271672       -3.81181721346835       -0.51219645488425
H           -2.71762680759110       -3.26299614668632       -1.37630122615060
H           -1.70638772666514       -3.50352900458965       -0.19661399531596

          :  Hamiltonian                  GFN2-xTB          :
         :: gradient norm              0.000528189402 Eh/a0 ::
         :: HOMO-LUMO gap              3.578745198714 eV    ::
         :: SCC energy               -18.547468941893 Eh    ::
         :: -> dispersion             -0.006189186933 Eh    ::
         :: -> Gsolv                  -0.117765030400 Eh    ::
         :: repulsion energy           0.185057270732 Eh    ::

    * Orbital Energies and Occupations

         #    Occupation            Energy/Eh            Energy/eV
      -------------------------------------------------------------
         1        2.0000           -0.6371808             -17.3386
       ...           ...                  ...                  ...
         4        2.0000           -0.5644781             -15.3602
         5        2.0000           -0.5375004             -14.6261
         6        2.0000           -0.5147475             -14.0070
         7        2.0000           -0.4968649             -13.5204
         8        2.0000           -0.4815206             -13.1028
         9        2.0000           -0.4722164             -12.8497
        10        2.0000           -0.4628468             -12.5947
        11        2.0000           -0.4383967             -11.9294
        12        2.0000           -0.4267033             -11.6112
        13        2.0000           -0.4009151             -10.9095
        14        2.0000           -0.3943948             -10.7320
        15        2.0000           -0.3264203              -8.8823
        16        2.0000           -0.3248257              -8.8390 (HOMO)
        17                         -0.1933089              -5.2602 (LUMO)
        18                          0.1169065               3.1812
        19                          0.1203563               3.2751
        20                          0.1475395               4.0148
        21                          0.1662778               4.5246
        22                          0.1878673               5.1121
        23                          0.2218512               6.0369
        24                          0.2463840               6.7045
        25                          0.3152857               8.5794
        26                          0.4294579              11.6861
        27                          0.6354587              17.2917
      -------------------------------------------------------------
                  HL-Gap            0.1315167 Eh            3.5788 eV

     #   Z          covCN         q      C6AA      α(0)
     1   1 H        0.925     0.028     2.610     2.527
     2   6 C        3.671     0.160    18.236     6.121
     3   8 O        0.870    -0.827    32.413     7.633
     4   1 H        0.926     0.044     2.397     2.421
     5   6 C        2.883    -0.049    29.214     8.861
     6   6 C        2.836    -0.107    30.696     9.079
     7   1 H        0.926     0.030     2.582     2.513
     8   1 H        0.920    -0.073     4.698     3.390
     9   1 H        0.918    -0.081     4.944     3.478
    10   8 O        1.593    -0.740    28.822     7.245
    11   1 H        0.805     0.292     0.744     1.355
    12   1 H        0.805     0.323     0.657     1.273

Wiberg/Mayer (AO) data.
largest (>0.10) Wiberg bond orders for each atom

     #   Z sym  total        # sym  WBO       # sym  WBO       # sym  WBO
 ---------------------------------------------------------------------------
     1   1 H    0.999 --     5 C    0.966
     2   6 C    3.982 --     3 O    1.083     5 C    0.990     8 H    0.950
                             9 H    0.931
     3   8 O    1.441 --     2 C    1.083    11 H    0.159
     4   1 H    0.998 --     6 C    0.975
     5   6 C    3.985 --     6 C    1.979     2 C    0.990     1 H    0.966
     6   6 C    3.987 --     5 C    1.979     7 H    0.975     4 H    0.975
     7   1 H    0.999 --     6 C    0.975
     8   1 H    0.995 --     2 C    0.950
     9   1 H    0.993 --     2 C    0.931
    10   8 O    1.722 --    12 H    0.895    11 H    0.750
    11   1 H    0.915 --    10 O    0.750     3 O    0.159
    12   1 H    0.896 --    10 O    0.895
 ---------------------------------------------------------------------------

molecular dipole:
                 x           y           z       tot (Debye)
 q only:        6.153       5.374       4.313
   full:        6.090       5.448       4.129      23.269

 projected vibrational frequencies (cm⁻¹)
eigval :       -0.00    -0.00    -0.00     0.00     0.00     0.00
eigval :       15.35    76.33   103.06   116.19   302.92   379.76
eigval :      417.22   630.06   657.87   868.02   907.49   953.99
eigval :      990.17  1028.22  1066.19  1125.84  1251.67  1272.33
eigval :     1343.09  1405.68  1484.63  1560.52  1708.62  2123.12
eigval :     2443.13  2618.19  3049.38  3082.82  3101.17  3625.89

   temp. (K)  partition function   enthalpy   heat capacity  entropy
                                   cal/mol     cal/K/mol   cal/K/mol   J/K/mol
 298.15  VIB   570.                 2994.220     16.636     20.046
         ROT  0.144E+06              888.752      2.981     26.584
         INT  0.820E+08             3882.972     19.617     46.630
         TR   0.630E+27             1481.254      4.968     38.846
         TOT                        5364.2264    24.5849    85.4766   357.6341

       T/K    H(0)-H(T)+PV         H(T)/Eh          T*S/Eh         G(T)/Eh
   ------------------------------------------------------------------------
    298.15    0.854844E-02    0.990120E-01    0.406127E-01    0.583993E-01
   ------------------------------------------------------------------------

         :::::::::::::::::::::::::::::::::::::::::::::::::::::
         ::                  THERMODYNAMIC                  ::
         :::::::::::::::::::::::::::::::::::::::::::::::::::::
         :: total free energy         -18.304012324137 Eh   ::
         ::.................................................::
         :: total energy              -18.362411670202 Eh   ::
         :: zero point energy           0.090463595925 Eh   ::
         :: G(RRHO) w/o ZPVE           -0.032064249860 Eh   ::
         :: G(RRHO) contrib.            0.058399346066 Eh   ::
         :::::::::::::::::::::::::::::::::::::::::::::::::::::

           -------------------------------------------------
          | TOTAL ENERGY              -18.362411670202 Eh   |
          | TOTAL ENTHALPY            -18.263399635446 Eh   |
          | TOTAL FREE ENERGY         -18.304012324137 Eh   |
          | GRADIENT NORM               0.000528104404 Eh/α |
          | HOMO-LUMO GAP               3.578752768843 eV   |
           -------------------------------------------------

 * finished run on 2025/10/18 at 01:02:43.182
normal termination of xtb
