   * xtb version 6.7.1 (edcfbbe) compiled by 'albert@albert-system' on 2024-07-22

   ID    Z sym.   atoms
    1    1 H      1, 4, 7-9
    2    6 C      2, 5, 6
    3    8 O      3

          program call               : xtb tb_lite_results_shiftn0p25_gp168_b0_rot180_solute.xyz --ohess --chrg -1
          :  Hamiltonian                  GFN2-xTB          :
 * total energy  :   -13.1460940 Eh     change       -0.3386162E-09 Eh
 * total energy  :   -13.1484740 Eh     change       -0.2380054E-02 Eh
 * total energy  :   -13.1489356 Eh     change       -0.4616009E-03 Eh
 * total energy  :   -13.1490565 Eh     change       -0.1209173E-03 Eh
 * total energy  :   -13.1491078 Eh     change       -0.5124522E-04 Eh
 * total energy  :   -13.1491264 Eh     change       -0.1856587E-04 Eh
 * total energy  :   -13.1491402 Eh     change       -0.1380334E-04 Eh
 * total energy  :   -13.1491512 Eh     change       -0.1102074E-04 Eh
 * total energy  :   -13.1491560 Eh     change       -0.4827476E-05 Eh
   *** GEOMETRY OPTIMIZATION CONVERGED AFTER 9 ITERATIONS ***

 final structure:
================
9
 xtb: 6.7.1 (edcfbbe)
H           -5.18499090050138       -2.56129883748347       -0.94766184907286
C           -4.21610101289644       -2.40652914864668       -2.90670280135540
O           -3.03540790495323       -2.11111483784757       -2.40388734103568
H           -6.70124019173000       -0.64231825400812       -1.13989170646502
C           -5.27980685024531       -2.03277889169872       -1.89166396266444
C           -6.10269930848695       -0.99486060832725       -1.97474549751080
H           -6.20146348589394       -0.42770886901547       -2.88906804680497
H           -4.46779169236662       -1.87282749372122       -3.88371683231794
H           -4.35820787973826       -3.52257614088669       -3.16021406743017

          :  Hamiltonian                  GFN2-xTB          :
         :: gradient norm              0.000771847277 Eh/a0 ::
         :: HOMO-LUMO gap              2.361803164061 eV    ::
         :: SCC energy               -13.303782977948 Eh    ::
         :: -> dispersion             -0.004853603596 Eh    ::
         :: repulsion energy           0.154626973377 Eh    ::

    * Orbital Energies and Occupations

         #    Occupation            Energy/Eh            Energy/eV
      -------------------------------------------------------------
         1        2.0000           -0.4268065             -11.6140
         2        2.0000           -0.3990343             -10.8583
         3        2.0000           -0.3722549             -10.1296
         4        2.0000           -0.3505607              -9.5392
         5        2.0000           -0.3208307              -8.7302
         6        2.0000           -0.2921535              -7.9499
         7        2.0000           -0.2732921              -7.4367
         8        2.0000           -0.2516409              -6.8475
         9        2.0000           -0.2364344              -6.4337
        10        2.0000           -0.2098469              -5.7102
        11        2.0000           -0.1052210              -2.8632
        12        2.0000           -0.1032646              -2.8100 (HOMO)
        13                         -0.0164699              -0.4482 (LUMO)
        14                          0.2837460               7.7211
        15                          0.3008940               8.1877
        16                          0.3324926               9.0476
        17                          0.3561102               9.6903
        18                          0.3849416              10.4748
        19                          0.5544358              15.0870
        20                          0.5777398              15.7211
        21                          0.7866116              21.4048
      -------------------------------------------------------------
                  HL-Gap            0.0867946 Eh            2.3618 eV

     #   Z          covCN         q      C6AA      α(0)
     1   1 H        0.925    -0.007     3.188     2.792
     2   6 C        3.658     0.188    17.862     6.066
     3   8 O        0.858    -0.745    29.954     7.338
     4   1 H        0.925    -0.035     3.733     3.021
     5   6 C        2.885    -0.042    29.033     8.834
     6   6 C        2.834    -0.115    30.894     9.108
     7   1 H        0.926    -0.015     3.324     2.851
     8   1 H        0.914    -0.110     5.917     3.805
     9   1 H        0.911    -0.121     6.385     3.953

Wiberg/Mayer (AO) data.
largest (>0.10) Wiberg bond orders for each atom

     #   Z sym  total        # sym  WBO       # sym  WBO       # sym  WBO
 ---------------------------------------------------------------------------
     1   1 H    1.000 --     5 C    0.970
     2   6 C    3.980 --     3 O    1.161     5 C    0.960     8 H    0.923
                             9 H    0.909
     3   8 O    1.471 --     2 C    1.161     5 C    0.112
     4   1 H    0.999 --     6 C    0.974
     5   6 C    3.955 --     6 C    1.907     1 H    0.970     2 C    0.960
                             3 O    0.112
     6   6 C    3.969 --     5 C    1.907     7 H    0.977     4 H    0.974
     7   1 H    1.000 --     6 C    0.977
     8   1 H    0.988 --     2 C    0.923
     9   1 H    0.985 --     2 C    0.909
 ---------------------------------------------------------------------------

molecular dipole:
                 x           y           z       tot (Debye)
 q only:        7.113       3.775       4.621
   full:        6.794       3.763       4.557      22.886

 projected vibrational frequencies (cm⁻¹)
eigval :       -0.00    -0.00    -0.00    -0.00     0.00     0.00
eigval :      108.54   291.15   387.65   631.68   806.91   897.80
eigval :      940.14   998.27  1112.39  1156.03  1242.93  1274.12
eigval :     1348.05  1427.27  1499.89  1658.81  2147.50  2370.42
eigval :     2965.88  3006.93  3058.46

   temp. (K)  partition function   enthalpy   heat capacity  entropy
                                   cal/mol     cal/K/mol   cal/K/mol   J/K/mol
 298.15  VIB   4.32                 1206.700      9.217      6.934
         ROT  0.364E+05              888.752      2.981     23.851
         INT  0.157E+06             2095.452     12.198     30.786
         TR   0.417E+27             1481.254      4.968     38.029
         TOT                        3576.7062    17.1661    68.8145   287.9201

       T/K    H(0)-H(T)+PV         H(T)/Eh          T*S/Eh         G(T)/Eh
   ------------------------------------------------------------------------
    298.15    0.569984E-02    0.725204E-01    0.326960E-01    0.398244E-01
   ------------------------------------------------------------------------

         :::::::::::::::::::::::::::::::::::::::::::::::::::::
         ::                  THERMODYNAMIC                  ::
         :::::::::::::::::::::::::::::::::::::::::::::::::::::
         :: total free energy         -13.109331623038 Eh   ::
         ::.................................................::
         :: total energy              -13.149156004573 Eh   ::
         :: zero point energy           0.066820550171 Eh   ::
         :: G(RRHO) w/o ZPVE           -0.026996168635 Eh   ::
         :: G(RRHO) contrib.            0.039824381536 Eh   ::
         :::::::::::::::::::::::::::::::::::::::::::::::::::::

           -------------------------------------------------
          | TOTAL ENERGY              -13.149156004573 Eh   |
          | TOTAL ENTHALPY            -13.076635610297 Eh   |
          | TOTAL FREE ENERGY         -13.109331623038 Eh   |
          | GRADIENT NORM               0.000771852075 Eh/α |
          | HOMO-LUMO GAP               2.361802124705 eV   |
           -------------------------------------------------

 * finished run on 2025/10/18 at 01:02:47.275
normal termination of xtb
