   * xtb version 6.7.1 (edcfbbe) compiled by 'albert@albert-system' on 2024-07-22

   ID    Z sym.   atoms
    1    6 C      1-6
    2    8 O      7, 8, 13
    3    1 H      9, 10, 12, 14
    4    7 N      11

          program call               : xtb xyz.xyz --charge -1 --ohess
          :  Hamiltonian                  GFN2-xTB          :
 * total energy  :   -30.0407027 Eh     change       -0.1801023E-08 Eh
 * total energy  :   -30.1198248 Eh     change       -0.7912208E-01 Eh
 * total energy  :   -30.1531245 Eh     change       -0.3329970E-01 Eh
 * total energy  :   -30.1578493 Eh     change       -0.4724795E-02 Eh
 * total energy  :   -30.1583029 Eh     change       -0.4535948E-03 Eh
 * total energy  :   -30.1586113 Eh     change       -0.3084534E-03 Eh
 * total energy  :   -30.1586517 Eh     change       -0.4034678E-04 Eh
 * total energy  :   -30.1586671 Eh     change       -0.1541163E-04 Eh
 * total energy  :   -30.1586497 Eh     change        0.1742560E-04 Eh
 * total energy  :   -30.1586738 Eh     change       -0.2412323E-04 Eh
 * total energy  :   -30.1586709 Eh     change        0.2854750E-05 Eh
 * total energy  :   -30.1586767 Eh     change       -0.5826341E-05 Eh
 * total energy  :   -30.1586778 Eh     change       -0.1074220E-05 Eh
   *** GEOMETRY OPTIMIZATION CONVERGED AFTER 13 ITERATIONS ***

 final structure:
================
14
 xtb: 6.7.1 (edcfbbe)
C           -2.05625416262851       -2.87368706866290        1.61180413550983
C           -2.53883065752166       -2.20723865687557        0.42388006906900
C           -3.70842051773368       -2.54459025727404       -0.17531938414573
C           -4.51631382538986       -3.57686662724605        0.34598029823609
C           -4.08496202282603       -4.25387242936076        1.50599569936352
C           -2.91658363723005       -3.92210416198350        2.11065295487126
O           -6.39583528088496       -4.83034042750545        0.21279297030800
O           -0.98136814091545       -2.56915377786970        2.16212738924794
H           -1.92254641308096       -1.41407071018723        0.02079685934334
H           -4.05354830588503       -2.03378755429561       -1.06446007237932
N           -5.70361198083202       -3.91778879776165       -0.26646863877187
H           -4.71623479302878       -5.04199546738005        1.89452498873504
O           -6.05971618126760       -3.30640217394397       -1.28700122503149
H           -2.58991408077542       -4.44383988965352        3.00086295564438

          :  Hamiltonian                  GFN2-xTB          :
         :: gradient norm              0.000489956025 Eh/a0 ::
         :: HOMO-LUMO gap              2.012656396242 eV    ::
         :: SCC energy               -30.492708684687 Eh    ::
         :: -> dispersion             -0.012800063010 Eh    ::
         :: repulsion energy           0.334030860496 Eh    ::

    * Orbital Energies and Occupations

         #    Occupation            Energy/Eh            Energy/eV
      -------------------------------------------------------------
         1        2.0000           -0.5889644             -16.0265
       ...           ...                  ...                  ...
        14        2.0000           -0.3674169              -9.9979
        15        2.0000           -0.3572398              -9.7210
        16        2.0000           -0.3516976              -9.5702
        17        2.0000           -0.3465625              -9.4304
        18        2.0000           -0.3142439              -8.5510
        19        2.0000           -0.3140272              -8.5451
        20        2.0000           -0.3003942              -8.1741
        21        2.0000           -0.2954323              -8.0391
        22        2.0000           -0.2741253              -7.4593
        23        2.0000           -0.2739943              -7.4558
        24        2.0000           -0.2720190              -7.4020
        25        2.0000           -0.2226476              -6.0585
        26        2.0000           -0.2209069              -6.0112 (HOMO)
        27                         -0.1469430              -3.9985 (LUMO)
        28                         -0.0826564              -2.2492
        29                         -0.0453290              -1.2335
        30                          0.0551345               1.5003
        31                          0.1836430               4.9972
        32                          0.2575221               7.0075
        33                          0.2806402               7.6366
        34                          0.2886836               7.8555
        35                          0.3217589               8.7555
        36                          0.3483702               9.4796
        37                          0.4284594              11.6590
       ...                                ...                  ...
        44                          0.8424723              22.9248
      -------------------------------------------------------------
                  HL-Gap            0.0739639 Eh            2.0127 eV

     #   Z          covCN         q      C6AA      α(0)
     1   6 C        2.829     0.201    23.722     7.981
     2   6 C        2.912    -0.083    30.067     8.992
     3   6 C        2.909    -0.035    28.882     8.812
     4   6 C        2.913    -0.031    28.761     8.794
     5   6 C        2.909    -0.035    28.882     8.812
     6   6 C        2.912    -0.083    30.067     8.992
     7   8 O        0.930    -0.495    23.635     6.520
     8   8 O        0.858    -0.520    24.226     6.599
     9   1 H        0.925     0.013     2.837     2.634
    10   1 H        0.925     0.032     2.557     2.501
    11   7 N        2.763     0.484    14.206     5.598
    12   1 H        0.925     0.032     2.558     2.501
    13   8 O        0.930    -0.495    23.638     6.520
    14   1 H        0.925     0.013     2.837     2.634

Wiberg/Mayer (AO) data.
largest (>0.10) Wiberg bond orders for each atom

     #   Z sym  total        # sym  WBO       # sym  WBO       # sym  WBO
 ---------------------------------------------------------------------------
     1   6 C    3.963 --     8 O    1.565     6 C    1.147     2 C    1.147
     2   6 C    3.986 --     3 C    1.627     1 C    1.147     9 H    0.971
     3   6 C    3.991 --     2 C    1.627     4 C    1.253    10 H    0.965
     4   6 C    3.944 --     5 C    1.253     3 C    1.253    11 N    1.127
     5   6 C    3.991 --     6 C    1.627     4 C    1.253    12 H    0.965
     6   6 C    3.986 --     5 C    1.627     1 C    1.147    14 H    0.971
     7   8 O    1.773 --    11 N    1.330    13 O    0.256
     8   8 O    1.821 --     1 C    1.565
     9   1 H    0.999 --     2 C    0.971
    10   1 H    0.999 --     3 C    0.965
    11   7 N    3.868 --     7 O    1.330    13 O    1.330     4 C    1.127
    12   1 H    0.999 --     5 C    0.965
    13   8 O    1.772 --    11 N    1.330     7 O    0.256
    14   1 H    0.999 --     6 C    0.971
 ---------------------------------------------------------------------------

molecular dipole:
                 x           y           z       tot (Debye)
 q only:        7.603       6.498      -1.127
   full:        7.473       6.462      -1.193      25.294

 projected vibrational frequencies (cm⁻¹)
eigval :       -0.00    -0.00    -0.00    -0.00     0.00     0.00
eigval :       87.07    94.86   213.36   252.65   352.69   372.57
eigval :      431.37   442.07   545.96   610.87   622.44   663.35
eigval :      716.02   786.76   820.01   820.13   855.04   919.73
eigval :      922.66   972.63  1104.70  1151.39  1193.29  1234.87
eigval :     1300.08  1349.00  1407.60  1477.22  1518.33  1529.38
eigval :     1592.41  1623.29  3049.55  3051.84  3064.46  3067.93

   temp. (K)  partition function   enthalpy   heat capacity  entropy
                                   cal/mol     cal/K/mol   cal/K/mol   J/K/mol
 298.15  VIB   48.9                 3174.857     23.475     18.262
         ROT  0.281E+06              888.752      2.981     27.910
         INT  0.137E+08             4063.610     26.456     46.172
         TR   0.157E+28             1481.254      4.968     40.662
         TOT                        5544.8635    31.4238    86.8343   363.3147

       T/K    H(0)-H(T)+PV         H(T)/Eh          T*S/Eh         G(T)/Eh
   ------------------------------------------------------------------------
    298.15    0.883630E-02    0.100459E+00    0.412578E-01    0.592009E-01
   ------------------------------------------------------------------------

         :::::::::::::::::::::::::::::::::::::::::::::::::::::
         ::                  THERMODYNAMIC                  ::
         :::::::::::::::::::::::::::::::::::::::::::::::::::::
         :: total free energy         -30.099476962281 Eh   ::
         ::.................................................::
         :: total energy              -30.158677824188 Eh   ::
         :: zero point energy           0.091622331802 Eh   ::
         :: G(RRHO) w/o ZPVE           -0.032421469896 Eh   ::
         :: G(RRHO) contrib.            0.059200861907 Eh   ::
         :::::::::::::::::::::::::::::::::::::::::::::::::::::

           -------------------------------------------------
          | TOTAL ENERGY              -30.158677824188 Eh   |
          | TOTAL ENTHALPY            -30.058219189929 Eh   |
          | TOTAL FREE ENERGY         -30.099476962281 Eh   |
          | GRADIENT NORM               0.000489682725 Eh/α |
          | HOMO-LUMO GAP               2.012660277693 eV   |
           -------------------------------------------------

 * finished run on 2025/10/18 at 05:14:44.977
