                         Program Version 5.0.4 -  RELEASE  -
|  1> !SP HF def2-SVP CPCM(water)
|  2>
|  3> *xyz -1 1
|  4> C           -0.16327289018103       -0.81304944774459        1.58455832159786
|  5> C           -0.43253964067672       -0.73637798493681       -1.44190166243915
|  6> Cl          -1.75805614439891       -1.30398560575791        1.75269203875664
|  7> H            0.59693093349965       -1.56644156098070        1.56493117973891
|  8> H            0.05346733235844        0.23243053451801        1.65968947260540
|  9> O           -0.76159293852211        0.35830392404427       -1.39552695269200
| 10> O           -0.10222365207932       -1.82978485914228       -1.50867039756766
| 11> *
| 12>
| 13>                          ****END OF INPUT****

CARTESIAN COORDINATES (ANGSTROEM)
---------------------------------
  C     -0.163273   -0.813049    1.584558
  C     -0.432540   -0.736378   -1.441902
  Cl    -1.758056   -1.303986    1.752692
  H      0.596931   -1.566442    1.564931
  H      0.053467    0.232431    1.659689
  O     -0.761593    0.358304   -1.395527
  O     -0.102224   -1.829785   -1.508670

 Total Charge           Charge          ....   -1
 Multiplicity           Mult            ....    1
 Number of Electrons    NEL             ....   48
 Basis Dimension        Dim             ....   84

ORBITAL ENERGIES
----------------

  NO   OCC          E(Eh)            E(eV)
   0   2.0000    -104.724219     -2849.6909
   1   2.0000     -20.617058      -561.0187
   2   2.0000     -20.616960      -561.0160
   3   2.0000     -11.443258      -311.3869
   4   2.0000     -11.130347      -302.8721
   5   2.0000     -10.487327      -285.3747
   6   2.0000      -7.962781      -216.6783
   7   2.0000      -7.960100      -216.6053
   8   2.0000      -7.959497      -216.5889
   9   2.0000      -1.498506       -40.7764
  10   2.0000      -1.448395       -39.4128
  11   2.0000      -1.068235       -29.0682
  12   2.0000      -0.767531       -20.8856
  13   2.0000      -0.761150       -20.7119
  14   2.0000      -0.725459       -19.7407
  15   2.0000      -0.699409       -19.0319
  16   2.0000      -0.696369       -18.9492
  17   2.0000      -0.538663       -14.6578
  18   2.0000      -0.522901       -14.2289
  19   2.0000      -0.519660       -14.1407
  20   2.0000      -0.492224       -13.3941
  21   2.0000      -0.443995       -12.0817
  22   2.0000      -0.380114       -10.3434
  23   2.0000      -0.188734        -5.1357
  24   0.0000       0.230806         6.2806
  25   0.0000       0.248125         6.7518
  26   0.0000       0.258515         7.0345
  27   0.0000       0.270134         7.3507
  28   0.0000       0.297097         8.0844

MULLIKEN ATOMIC CHARGES
-----------------------
   0 C :   -0.607886
   1 C :    0.618767
   2 Cl:   -0.353300
   3 H :   -0.003704
   4 H :   -0.004224
   5 O :   -0.324789
   6 O :   -0.324863
Sum of atomic charges:   -1.0000000

LOEWDIN ATOMIC CHARGES
----------------------
   0 C :   -0.734662
   1 C :    0.286008
   2 Cl:   -0.099127
   3 H :   -0.058881
   4 H :   -0.059144
   5 O :   -0.167051
   6 O :   -0.167143

  Mayer bond orders larger than 0.100000
B(  0-C ,  2-Cl) :   0.8460 B(  0-C ,  3-H ) :   0.9994 B(  0-C ,  4-H ) :   0.9993
B(  1-C ,  5-O ) :   2.0737 B(  1-C ,  6-O ) :   2.0736 B(  5-O ,  6-O ) :   0.1548

FINAL SINGLE POINT ENERGY      -685.825844452316

DIPOLE MOMENT
-------------
                                X             Y             Z
Electronic contribution:     -3.82731      -1.00776      -2.87434
Nuclear contribution   :      3.45545       1.01796       0.50539
                        -----------------------------------------
Total Dipole Moment    :     -0.37186       0.01020      -2.36895
                        -----------------------------------------
Magnitude (a.u.)       :      2.39798
Magnitude (Debye)      :      6.09517

Rotational constants in cm-1:     0.240641     0.059297     0.055900
Rotational constants in MHz :  7214.232181  1777.681632  1675.848085

                             ****ORCA TERMINATED NORMALLY****
TOTAL RUN TIME: 0 days 0 hours 0 minutes 9 seconds 520 msec
