   * xtb version 6.7.1 (edcfbbe) compiled by 'albert@albert-system' on 2024-07-22

   ID    Z sym.   atoms
    1    7 N      1
    2    6 C      2
    3    1 H      3, 5, 8, 9
    4    8 O      4, 6, 7

          program call               : xtb tb_lite_results_shiftn0p1_gp392_b0_rot270_complex.xyz --ohess --chrg -1 --alpb water
      * Solvation model:               ALPB
        Solvent                        water
        Solvent mass                       1.8000E+01 g/mol
          :  Hamiltonian                  GFN2-xTB          :
 * total energy  :   -19.5209946 Eh     change       -0.1445954E-11 Eh
 * total energy  :   -19.5240918 Eh     change       -0.3097239E-02 Eh
 * total energy  :   -19.5243189 Eh     change       -0.2271161E-03 Eh
 * total energy  :   -19.5243423 Eh     change       -0.2332516E-04 Eh
 * total energy  :   -19.5243944 Eh     change       -0.5210724E-04 Eh
 * total energy  :   -19.5244406 Eh     change       -0.4624748E-04 Eh
 * total energy  :   -19.5244752 Eh     change       -0.3461971E-04 Eh
 * total energy  :   -19.5245363 Eh     change       -0.6106976E-04 Eh
 * total energy  :   -19.5245641 Eh     change       -0.2781850E-04 Eh
 * total energy  :   -19.5245729 Eh     change       -0.8757341E-05 Eh
 * total energy  :   -19.5245820 Eh     change       -0.9149054E-05 Eh
 * total energy  :   -19.5245890 Eh     change       -0.6970948E-05 Eh
 * total energy  :   -19.5245972 Eh     change       -0.8212740E-05 Eh
 * total energy  :   -19.5246029 Eh     change       -0.5705389E-05 Eh
 * total energy  :   -19.5246056 Eh     change       -0.2683990E-05 Eh
 * total energy  :   -19.5246089 Eh     change       -0.3273933E-05 Eh
   *** GEOMETRY OPTIMIZATION CONVERGED AFTER 16 ITERATIONS ***

 final structure:
================
9
 xtb: 6.7.1 (edcfbbe)
N           -6.55537703996861       -3.03559379250504        3.31190566530318
C           -5.59954338686993       -2.64484733435909        2.53172473548991
H           -5.83466729962006       -2.43226472708038        1.50891822167324
O           -7.75586112765931       -3.16896572014731        2.88653005246422
H           -4.61511150251293       -2.55201598675243        2.94234921384263
O           -6.32179431996908       -3.30360861423240        4.55416243958499
O           -8.73973444090149       -4.13753740496487        5.58811821829364
H           -7.82713812590140       -3.86190362561188        5.35459060120681
H           -9.22812264106777       -4.01768938737113        4.76526412462278

          :  Hamiltonian                  GFN2-xTB          :
         :: gradient norm              0.000690286000 Eh/a0 ::
         :: HOMO-LUMO gap              4.008064086978 eV    ::
         :: SCC energy               -19.647420150191 Eh    ::
         :: -> dispersion             -0.004022853514 Eh    ::
         :: -> Gsolv                  -0.108557714672 Eh    ::
         :: repulsion energy           0.122811276473 Eh    ::

    * Orbital Energies and Occupations

         #    Occupation            Energy/Eh            Energy/eV
      -------------------------------------------------------------
         1        2.0000           -0.6905333             -18.7904
       ...           ...                  ...                  ...
         4        2.0000           -0.6374648             -17.3463
         5        2.0000           -0.5683736             -15.4662
         6        2.0000           -0.5599730             -15.2376
         7        2.0000           -0.5437362             -14.7958
         8        2.0000           -0.5265451             -14.3280
         9        2.0000           -0.5218221             -14.1995
        10        2.0000           -0.4863196             -13.2334
        11        2.0000           -0.4625665             -12.5871
        12        2.0000           -0.4181804             -11.3793
        13        2.0000           -0.4033005             -10.9744
        14        2.0000           -0.3908630             -10.6359
        15        2.0000           -0.3828657             -10.4183
        16        2.0000           -0.3566987              -9.7063 (HOMO)
        17                         -0.2094051              -5.6982 (LUMO)
        18                          0.0568671               1.5474
        19                          0.1366846               3.7194
        20                          0.1645010               4.4763
        21                          0.1728123               4.7025
        22                          0.2877087               7.8290
        23                          0.4401009              11.9758
        24                          0.4682195              12.7409
      -------------------------------------------------------------
                  HL-Gap            0.1472936 Eh            4.0081 eV

     #   Z          covCN         q      C6AA      α(0)
     1   7 N        2.754     0.405    15.151     5.781
     2   6 C        2.780    -0.140    31.564     9.202
     3   1 H        0.926     0.054     2.265     2.354
     4   8 O        0.930    -0.661    27.613     7.047
     5   1 H        0.926     0.053     2.278     2.360
     6   8 O        0.930    -0.668    27.804     7.072
     7   8 O        1.608    -0.681    27.214     7.041
     8   1 H        0.803     0.312     0.688     1.303
     9   1 H        0.805     0.326     0.648     1.264

Wiberg/Mayer (AO) data.
largest (>0.10) Wiberg bond orders for each atom

     #   Z sym  total        # sym  WBO       # sym  WBO       # sym  WBO
 ---------------------------------------------------------------------------
     1   7 N    3.860 --     2 C    1.527     4 O    1.179     6 O    1.151
     2   6 C    3.910 --     1 N    1.527     5 H    0.976     3 H    0.975
                             4 O    0.226     6 O    0.204
     3   1 H    0.997 --     2 C    0.975
     4   8 O    1.558 --     1 N    1.179     2 C    0.226     6 O    0.125
     5   1 H    0.997 --     2 C    0.976
     6   8 O    1.574 --     1 N    1.151     2 C    0.204     4 O    0.125
     7   8 O    1.767 --     9 H    0.889     8 H    0.849
     8   1 H    0.903 --     7 O    0.849
     9   1 H    0.894 --     7 O    0.889
 ---------------------------------------------------------------------------

molecular dipole:
                 x           y           z       tot (Debye)
 q only:       14.026       6.576      -8.145
   full:       14.222       6.696      -8.429      45.336

 projected vibrational frequencies (cm⁻¹)
eigval :       -0.00    -0.00     0.00     0.00     0.00     0.00
eigval :       37.41    77.40   194.25   278.43   345.35   504.11
eigval :      622.68   629.70   642.03   658.31   688.66  1016.58
eigval :     1041.54  1306.77  1324.79  1523.21  1633.29  3147.19
eigval :     3183.88  3205.89  3581.12

   temp. (K)  partition function   enthalpy   heat capacity  entropy
                                   cal/mol     cal/K/mol   cal/K/mol   J/K/mol
 298.15  VIB   74.5                 2521.422     15.183     15.709
         ROT  0.102E+06              888.752      2.981     25.903
         INT  0.762E+07             3410.174     18.164     41.612
         TR   0.667E+27             1481.254      4.968     38.962
         TOT                        4891.4281    23.1317    80.5739   337.1213

       T/K    H(0)-H(T)+PV         H(T)/Eh          T*S/Eh         G(T)/Eh
   ------------------------------------------------------------------------
    298.15    0.779499E-02    0.662131E-01    0.382833E-01    0.279299E-01
   ------------------------------------------------------------------------

         :::::::::::::::::::::::::::::::::::::::::::::::::::::
         ::                  THERMODYNAMIC                  ::
         :::::::::::::::::::::::::::::::::::::::::::::::::::::
         :: total free energy         -19.496679011533 Eh   ::
         ::.................................................::
         :: total energy              -19.524608873894 Eh   ::
         :: zero point energy           0.058418151899 Eh   ::
         :: G(RRHO) w/o ZPVE           -0.030488289537 Eh   ::
         :: G(RRHO) contrib.            0.027929862362 Eh   ::
         :::::::::::::::::::::::::::::::::::::::::::::::::::::

           -------------------------------------------------
          | TOTAL ENERGY              -19.524608873894 Eh   |
          | TOTAL ENTHALPY            -19.458395735110 Eh   |
          | TOTAL FREE ENERGY         -19.496679011533 Eh   |
          | GRADIENT NORM               0.000690249069 Eh/α |
          | HOMO-LUMO GAP               4.008063952348 eV   |
           -------------------------------------------------

 * finished run on 2025/10/18 at 05:23:41.359
normal termination of xtb
