   * xtb version 6.7.1 (edcfbbe) compiled by 'albert@albert-system' on 2024-07-22

   ID    Z sym.   atoms
    1    7 N      1
    2    6 C      2
    3    1 H      3, 5, 8, 9
    4    8 O      4, 6, 7

          program call               : xtb tb_lite_results_shiftn0p1_gp227_b0_rot90_complex.xyz --ohess --chrg -1 --alpb water
      * Solvation model:               ALPB
        Solvent                        water
        Solvent mass                       1.8000E+01 g/mol
          :  Hamiltonian                  GFN2-xTB          :
 * total energy  :   -19.5211756 Eh     change       -0.9876544E-12 Eh
 * total energy  :   -19.5242084 Eh     change       -0.3032787E-02 Eh
 * total energy  :   -19.5244356 Eh     change       -0.2271893E-03 Eh
 * total energy  :   -19.5244617 Eh     change       -0.2607414E-04 Eh
 * total energy  :   -19.5245023 Eh     change       -0.4061958E-04 Eh
 * total energy  :   -19.5245238 Eh     change       -0.2148032E-04 Eh
 * total energy  :   -19.5245437 Eh     change       -0.1990500E-04 Eh
 * total energy  :   -19.5245677 Eh     change       -0.2407336E-04 Eh
 * total energy  :   -19.5245875 Eh     change       -0.1977506E-04 Eh
 * total energy  :   -19.5245976 Eh     change       -0.1013475E-04 Eh
 * total energy  :   -19.5246043 Eh     change       -0.6617356E-05 Eh
 * total energy  :   -19.5246067 Eh     change       -0.2412854E-05 Eh
   *** GEOMETRY OPTIMIZATION CONVERGED AFTER 12 ITERATIONS ***

 final structure:
================
9
 xtb: 6.7.1 (edcfbbe)
N           -6.63132990324075       -2.95552414019303        3.26760575752170
C           -5.56956608212176       -2.69052243002755        2.57631514565717
H           -5.66775559076693       -2.58323313550160        1.51548051276248
O           -7.77868702669834       -3.08477873270129        2.68703714128503
H           -4.63852395833571       -2.59048087667525        3.09576750787434
O           -6.58586377044489       -3.09791025712146        4.53931836185659
O           -9.56064742867958       -3.66354139640513        4.70577574924214
H           -9.02986064891990       -3.46669027650799        3.90237434490082
H           -8.91095852563454       -3.62955297438513        5.41812877422329

          :  Hamiltonian                  GFN2-xTB          :
         :: gradient norm              0.000563656761 Eh/a0 ::
         :: HOMO-LUMO gap              4.007035897171 eV    ::
         :: SCC energy               -19.647115283485 Eh    ::
         :: -> dispersion             -0.004023332789 Eh    ::
         :: -> Gsolv                  -0.108596361047 Eh    ::
         :: repulsion energy           0.122508607424 Eh    ::

    * Orbital Energies and Occupations

         #    Occupation            Energy/Eh            Energy/eV
      -------------------------------------------------------------
         1        2.0000           -0.6907035             -18.7950
       ...           ...                  ...                  ...
         4        2.0000           -0.6375525             -17.3487
         5        2.0000           -0.5684599             -15.4686
         6        2.0000           -0.5600889             -15.2408
         7        2.0000           -0.5438477             -14.7988
         8        2.0000           -0.5264072             -14.3243
         9        2.0000           -0.5217760             -14.1982
        10        2.0000           -0.4861315             -13.2283
        11        2.0000           -0.4626248             -12.5887
        12        2.0000           -0.4179012             -11.3717
        13        2.0000           -0.4034545             -10.9786
        14        2.0000           -0.3909926             -10.6395
        15        2.0000           -0.3829687             -10.4211
        16        2.0000           -0.3568198              -9.7096 (HOMO)
        17                         -0.2095639              -5.7025 (LUMO)
        18                          0.0566640               1.5419
        19                          0.1359877               3.7004
        20                          0.1641710               4.4673
        21                          0.1727315               4.7003
        22                          0.2869656               7.8087
        23                          0.4397349              11.9658
        24                          0.4678496              12.7308
      -------------------------------------------------------------
                  HL-Gap            0.1472559 Eh            4.0070 eV

     #   Z          covCN         q      C6AA      α(0)
     1   7 N        2.754     0.405    15.150     5.781
     2   6 C        2.779    -0.140    31.564     9.202
     3   1 H        0.926     0.054     2.275     2.359
     4   8 O        0.930    -0.668    27.795     7.070
     5   1 H        0.926     0.055     2.262     2.352
     6   8 O        0.930    -0.660    27.603     7.046
     7   8 O        1.607    -0.682    27.240     7.044
     8   1 H        0.802     0.311     0.688     1.303
     9   1 H        0.805     0.326     0.648     1.265

Wiberg/Mayer (AO) data.
largest (>0.10) Wiberg bond orders for each atom

     #   Z sym  total        # sym  WBO       # sym  WBO       # sym  WBO
 ---------------------------------------------------------------------------
     1   7 N    3.859 --     2 C    1.527     6 O    1.180     4 O    1.150
     2   6 C    3.910 --     1 N    1.527     3 H    0.976     5 H    0.975
                             6 O    0.226     4 O    0.204
     3   1 H    0.997 --     2 C    0.976
     4   8 O    1.575 --     1 N    1.150     2 C    0.204     6 O    0.125
     5   1 H    0.997 --     2 C    0.975
     6   8 O    1.559 --     1 N    1.180     2 C    0.226     4 O    0.125
     7   8 O    1.767 --     9 H    0.890     8 H    0.847
     8   1 H    0.903 --     7 O    0.847
     9   1 H    0.894 --     7 O    0.890
 ---------------------------------------------------------------------------

molecular dipole:
                 x           y           z       tot (Debye)
 q only:       14.907       6.128      -7.198
   full:       15.247       6.202      -7.302      45.770

 projected vibrational frequencies (cm⁻¹)
eigval :       -0.00    -0.00    -0.00     0.00     0.00     0.00
eigval :       26.18    74.52   195.69   264.40   367.25   504.26
eigval :      624.77   630.10   641.92   661.46   719.77  1016.23
eigval :     1041.42  1306.48  1325.13  1526.93  1632.68  3146.68
eigval :     3163.45  3205.31  3577.54

   temp. (K)  partition function   enthalpy   heat capacity  entropy
                                   cal/mol     cal/K/mol   cal/K/mol   J/K/mol
 298.15  VIB   106.                 2526.180     14.904     15.810
         ROT  0.102E+06              888.752      2.981     25.901
         INT  0.108E+08             3414.932     17.885     41.710
         TR   0.667E+27             1481.254      4.968     38.962
         TOT                        4896.1858    22.8534    80.6720   337.5315

       T/K    H(0)-H(T)+PV         H(T)/Eh          T*S/Eh         G(T)/Eh
   ------------------------------------------------------------------------
    298.15    0.780257E-02    0.662425E-01    0.383299E-01    0.279127E-01
   ------------------------------------------------------------------------

         :::::::::::::::::::::::::::::::::::::::::::::::::::::
         ::                  THERMODYNAMIC                  ::
         :::::::::::::::::::::::::::::::::::::::::::::::::::::
         :: total free energy         -19.496694005563 Eh   ::
         ::.................................................::
         :: total energy              -19.524606676889 Eh   ::
         :: zero point energy           0.058439955908 Eh   ::
         :: G(RRHO) w/o ZPVE           -0.030527284582 Eh   ::
         :: G(RRHO) contrib.            0.027912671326 Eh   ::
         :::::::::::::::::::::::::::::::::::::::::::::::::::::

           -------------------------------------------------
          | TOTAL ENERGY              -19.524606676889 Eh   |
          | TOTAL ENTHALPY            -19.458364152241 Eh   |
          | TOTAL FREE ENERGY         -19.496694005563 Eh   |
          | GRADIENT NORM               0.000563664349 Eh/α |
          | HOMO-LUMO GAP               4.007036244986 eV   |
           -------------------------------------------------

 * finished run on 2025/10/18 at 05:23:38.890
normal termination of xtb
