   * xtb version 6.7.1 (edcfbbe) compiled by 'albert@albert-system' on 2024-07-22

   ID    Z sym.   atoms
    1    7 N      1
    2    6 C      2
    3    1 H      3, 5, 8, 9
    4    8 O      4, 6, 7

          program call               : xtb tb_lite_results_shiftn0p15_gp227_b0_rot90_complex.xyz --ohess --chrg -1 --alpb water
      * Solvation model:               ALPB
        Solvent                        water
        Solvent mass                       1.8000E+01 g/mol
          :  Hamiltonian                  GFN2-xTB          :
 * total energy  :   -19.5207116 Eh     change       -0.9201528E-12 Eh
 * total energy  :   -19.5241649 Eh     change       -0.3453289E-02 Eh
 * total energy  :   -19.5244353 Eh     change       -0.2704622E-03 Eh
 * total energy  :   -19.5244697 Eh     change       -0.3437227E-04 Eh
 * total energy  :   -19.5245190 Eh     change       -0.4927523E-04 Eh
 * total energy  :   -19.5245334 Eh     change       -0.1447282E-04 Eh
 * total energy  :   -19.5245543 Eh     change       -0.2084786E-04 Eh
 * total energy  :   -19.5245757 Eh     change       -0.2137740E-04 Eh
 * total energy  :   -19.5245912 Eh     change       -0.1551000E-04 Eh
 * total energy  :   -19.5246001 Eh     change       -0.8965377E-05 Eh
 * total energy  :   -19.5246050 Eh     change       -0.4861103E-05 Eh
   *** GEOMETRY OPTIMIZATION CONVERGED AFTER 11 ITERATIONS ***

 final structure:
================
9
 xtb: 6.7.1 (edcfbbe)
N           -6.61379175509076       -2.95243319424735        3.25920766475005
C           -5.55228425344379       -2.68423031904588        2.56870822199938
H           -5.65138438015992       -2.57291150980104        1.50836800127871
O           -7.76091314814019       -3.08008772524709        2.67839160371474
H           -4.62116514722784       -2.58580883920312        3.08812587996758
O           -6.56758975620366       -3.09968745799993        4.53047950411550
O           -9.56117762484596       -3.66034438135669        4.68334772769557
H           -9.02283183366893       -3.46389952869407        3.88503380089206
H           -8.91849187880375       -3.63043767014883        5.40257773365220

          :  Hamiltonian                  GFN2-xTB          :
         :: gradient norm              0.000893496528 Eh/a0 ::
         :: HOMO-LUMO gap              4.006678727821 eV    ::
         :: SCC energy               -19.647098047058 Eh    ::
         :: -> dispersion             -0.004018275217 Eh    ::
         :: -> Gsolv                  -0.108671085045 Eh    ::
         :: repulsion energy           0.122493040499 Eh    ::

    * Orbital Energies and Occupations

         #    Occupation            Energy/Eh            Energy/eV
      -------------------------------------------------------------
         1        2.0000           -0.6906258             -18.7929
       ...           ...                  ...                  ...
         4        2.0000           -0.6374860             -17.3469
         5        2.0000           -0.5684212             -15.4675
         6        2.0000           -0.5600254             -15.2391
         7        2.0000           -0.5438182             -14.7980
         8        2.0000           -0.5265204             -14.3274
         9        2.0000           -0.5217981             -14.1988
        10        2.0000           -0.4861585             -13.2290
        11        2.0000           -0.4625860             -12.5876
        12        2.0000           -0.4180770             -11.3765
        13        2.0000           -0.4033827             -10.9766
        14        2.0000           -0.3909772             -10.6390
        15        2.0000           -0.3828872             -10.4189
        16        2.0000           -0.3567362              -9.7073 (HOMO)
        17                         -0.2094935              -5.7006 (LUMO)
        18                          0.0567705               1.5448
        19                          0.1350108               3.6738
        20                          0.1644870               4.4759
        21                          0.1727917               4.7019
        22                          0.2868237               7.8049
        23                          0.4399734              11.9723
        24                          0.4677846              12.7291
      -------------------------------------------------------------
                  HL-Gap            0.1472427 Eh            4.0067 eV

     #   Z          covCN         q      C6AA      α(0)
     1   7 N        2.754     0.405    15.151     5.781
     2   6 C        2.779    -0.140    31.565     9.202
     3   1 H        0.926     0.054     2.276     2.359
     4   8 O        0.930    -0.668    27.793     7.070
     5   1 H        0.926     0.055     2.263     2.352
     6   8 O        0.930    -0.661    27.614     7.047
     7   8 O        1.607    -0.682    27.234     7.043
     8   1 H        0.802     0.311     0.688     1.303
     9   1 H        0.805     0.326     0.647     1.264

Wiberg/Mayer (AO) data.
largest (>0.10) Wiberg bond orders for each atom

     #   Z sym  total        # sym  WBO       # sym  WBO       # sym  WBO
 ---------------------------------------------------------------------------
     1   7 N    3.859 --     2 C    1.527     6 O    1.180     4 O    1.151
     2   6 C    3.910 --     1 N    1.527     3 H    0.976     5 H    0.975
                             6 O    0.226     4 O    0.204
     3   1 H    0.997 --     2 C    0.976
     4   8 O    1.575 --     1 N    1.151     2 C    0.204     6 O    0.125
     5   1 H    0.997 --     2 C    0.975
     6   8 O    1.558 --     1 N    1.180     2 C    0.226     4 O    0.125
     7   8 O    1.767 --     9 H    0.890     8 H    0.847
     8   1 H    0.903 --     7 O    0.847
     9   1 H    0.894 --     7 O    0.890
 ---------------------------------------------------------------------------

molecular dipole:
                 x           y           z       tot (Debye)
 q only:       14.870       6.123      -7.172
   full:       15.211       6.197      -7.273      45.658

 projected vibrational frequencies (cm⁻¹)
eigval :       -0.00    -0.00    -0.00     0.00     0.00     0.00
eigval :       31.68    71.62   194.73   272.97   370.89   504.38
eigval :      625.20   629.68   643.29   663.06   721.59  1016.61
eigval :     1041.52  1306.87  1325.04  1527.05  1632.50  3147.08
eigval :     3165.60  3205.84  3573.66

   temp. (K)  partition function   enthalpy   heat capacity  entropy
                                   cal/mol     cal/K/mol   cal/K/mol   J/K/mol
 298.15  VIB   90.2                 2512.255     14.919     15.709
         ROT  0.103E+06              888.752      2.981     25.910
         INT  0.925E+07             3401.007     17.900     41.618
         TR   0.667E+27             1481.254      4.968     38.962
         TOT                        4882.2609    22.8684    80.5798   337.1460

       T/K    H(0)-H(T)+PV         H(T)/Eh          T*S/Eh         G(T)/Eh
   ------------------------------------------------------------------------
    298.15    0.778038E-02    0.662629E-01    0.382861E-01    0.279768E-01
   ------------------------------------------------------------------------

         :::::::::::::::::::::::::::::::::::::::::::::::::::::
         ::                  THERMODYNAMIC                  ::
         :::::::::::::::::::::::::::::::::::::::::::::::::::::
         :: total free energy         -19.496628176377 Eh   ::
         ::.................................................::
         :: total energy              -19.524605007339 Eh   ::
         :: zero point energy           0.058482528062 Eh   ::
         :: G(RRHO) w/o ZPVE           -0.030505697101 Eh   ::
         :: G(RRHO) contrib.            0.027976830961 Eh   ::
         :::::::::::::::::::::::::::::::::::::::::::::::::::::

           -------------------------------------------------
          | TOTAL ENERGY              -19.524605007339 Eh   |
          | TOTAL ENTHALPY            -19.458342101238 Eh   |
          | TOTAL FREE ENERGY         -19.496628176377 Eh   |
          | GRADIENT NORM               0.000893494083 Eh/α |
          | HOMO-LUMO GAP               4.006678858533 eV   |
           -------------------------------------------------

 * finished run on 2025/10/18 at 05:23:42.503
normal termination of xtb
