   * xtb version 6.7.1 (edcfbbe) compiled by 'albert@albert-system' on 2024-07-22

   ID    Z sym.   atoms
    1    7 N      1
    2    6 C      2
    3    1 H      3, 5, 8, 9
    4    8 O      4, 6, 7

          program call               : xtb tb_lite_results_shiftn0p05_gp227_b0_rot90_complex.xyz --ohess --chrg -1 --alpb water
      * Solvation model:               ALPB
        Solvent                        water
        Solvent mass                       1.8000E+01 g/mol
          :  Hamiltonian                  GFN2-xTB          :
 * total energy  :   -19.5214032 Eh     change       -0.1527667E-11 Eh
 * total energy  :   -19.5241834 Eh     change       -0.2780200E-02 Eh
 * total energy  :   -19.5244061 Eh     change       -0.2227507E-03 Eh
 * total energy  :   -19.5244380 Eh     change       -0.3192028E-04 Eh
 * total energy  :   -19.5244866 Eh     change       -0.4857637E-04 Eh
 * total energy  :   -19.5244950 Eh     change       -0.8426244E-05 Eh
 * total energy  :   -19.5245274 Eh     change       -0.3240745E-04 Eh
 * total energy  :   -19.5245532 Eh     change       -0.2579658E-04 Eh
 * total energy  :   -19.5245706 Eh     change       -0.1740826E-04 Eh
 * total energy  :   -19.5245846 Eh     change       -0.1396520E-04 Eh
 * total energy  :   -19.5245942 Eh     change       -0.9547750E-05 Eh
 * total energy  :   -19.5246029 Eh     change       -0.8792505E-05 Eh
 * total energy  :   -19.5246053 Eh     change       -0.2378846E-05 Eh
   *** GEOMETRY OPTIMIZATION CONVERGED AFTER 13 ITERATIONS ***

 final structure:
================
9
 xtb: 6.7.1 (edcfbbe)
N           -6.64394617188327       -2.95778469837176        3.27919737500874
C           -5.58082373739150       -2.69491931563135        2.58936912370154
H           -5.67606402931370       -2.59124072885838        1.52799488946976
O           -7.79005856387726       -3.08954940858013        2.69673985654915
H           -4.65116536637243       -2.59269757767829        3.11083754879427
O           -6.60092489551662       -3.09502567889629        4.55157492448224
O           -9.57102684636481       -3.66959162726363        4.71461155395780
H           -9.03896349837291       -3.47420962613623        3.91201568061334
H           -8.92378298300773       -3.62960915187689        5.42902550000437

          :  Hamiltonian                  GFN2-xTB          :
         :: gradient norm              0.000608381483 Eh/a0 ::
         :: HOMO-LUMO gap              4.007728701729 eV    ::
         :: SCC energy               -19.647170169380 Eh    ::
         :: -> dispersion             -0.004024401749 Eh    ::
         :: -> Gsolv                  -0.108598772879 Eh    ::
         :: repulsion energy           0.122564841326 Eh    ::

    * Orbital Energies and Occupations

         #    Occupation            Energy/Eh            Energy/eV
      -------------------------------------------------------------
         1        2.0000           -0.6907306             -18.7957
       ...           ...                  ...                  ...
         4        2.0000           -0.6375829             -17.3495
         5        2.0000           -0.5684748             -15.4690
         6        2.0000           -0.5601155             -15.2415
         7        2.0000           -0.5438659             -14.7993
         8        2.0000           -0.5264229             -14.3247
         9        2.0000           -0.5217805             -14.1984
        10        2.0000           -0.4860666             -13.2265
        11        2.0000           -0.4626293             -12.5888
        12        2.0000           -0.4178552             -11.3704
        13        2.0000           -0.4034754             -10.9791
        14        2.0000           -0.3909844             -10.6392
        15        2.0000           -0.3829927             -10.4218
        16        2.0000           -0.3568415              -9.7102 (HOMO)
        17                         -0.2095603              -5.7024 (LUMO)
        18                          0.0566730               1.5421
        19                          0.1361551               3.7050
        20                          0.1642003               4.4681
        21                          0.1727759               4.7015
        22                          0.2873453               7.8191
        23                          0.4398807              11.9698
        24                          0.4679606              12.7339
      -------------------------------------------------------------
                  HL-Gap            0.1472812 Eh            4.0077 eV

     #   Z          covCN         q      C6AA      α(0)
     1   7 N        2.754     0.405    15.149     5.781
     2   6 C        2.779    -0.140    31.563     9.202
     3   1 H        0.926     0.054     2.275     2.358
     4   8 O        0.930    -0.668    27.795     7.070
     5   1 H        0.926     0.055     2.262     2.352
     6   8 O        0.930    -0.660    27.602     7.046
     7   8 O        1.607    -0.682    27.243     7.044
     8   1 H        0.802     0.311     0.688     1.303
     9   1 H        0.805     0.326     0.648     1.265

Wiberg/Mayer (AO) data.
largest (>0.10) Wiberg bond orders for each atom

     #   Z sym  total        # sym  WBO       # sym  WBO       # sym  WBO
 ---------------------------------------------------------------------------
     1   7 N    3.860 --     2 C    1.527     6 O    1.180     4 O    1.150
     2   6 C    3.910 --     1 N    1.527     3 H    0.976     5 H    0.975
                             6 O    0.226     4 O    0.204
     3   1 H    0.997 --     2 C    0.976
     4   8 O    1.575 --     1 N    1.150     2 C    0.204     6 O    0.125
     5   1 H    0.997 --     2 C    0.975
     6   8 O    1.559 --     1 N    1.180     2 C    0.226     4 O    0.125
     7   8 O    1.767 --     9 H    0.890     8 H    0.847
     8   1 H    0.903 --     7 O    0.847
     9   1 H    0.894 --     7 O    0.890
 ---------------------------------------------------------------------------

molecular dipole:
                 x           y           z       tot (Debye)
 q only:       14.932       6.133      -7.217
   full:       15.272       6.207      -7.320      45.847

 projected vibrational frequencies (cm⁻¹)
eigval :       -0.00    -0.00     0.00     0.00     0.00     0.00
eigval :       23.90    74.40   196.12   269.96   364.86   504.24
eigval :      624.54   630.12   642.15   661.31   720.49  1016.29
eigval :     1041.29  1306.54  1325.02  1526.53  1633.06  3147.28
eigval :     3166.62  3205.84  3575.89

   temp. (K)  partition function   enthalpy   heat capacity  entropy
                                   cal/mol     cal/K/mol   cal/K/mol   J/K/mol
 298.15  VIB   115.                 2525.803     14.877     15.837
         ROT  0.102E+06              888.752      2.981     25.899
         INT  0.117E+08             3414.555     17.858     41.736
         TR   0.667E+27             1481.254      4.968     38.962
         TOT                        4895.8094    22.8264    80.6974   337.6378

       T/K    H(0)-H(T)+PV         H(T)/Eh          T*S/Eh         G(T)/Eh
   ------------------------------------------------------------------------
    298.15    0.780197E-02    0.662516E-01    0.383419E-01    0.279097E-01
   ------------------------------------------------------------------------

         :::::::::::::::::::::::::::::::::::::::::::::::::::::
         ::                  THERMODYNAMIC                  ::
         :::::::::::::::::::::::::::::::::::::::::::::::::::::
         :: total free energy         -19.496695636325 Eh   ::
         ::.................................................::
         :: total energy              -19.524605328954 Eh   ::
         :: zero point energy           0.058449646705 Eh   ::
         :: G(RRHO) w/o ZPVE           -0.030539954076 Eh   ::
         :: G(RRHO) contrib.            0.027909692629 Eh   ::
         :::::::::::::::::::::::::::::::::::::::::::::::::::::

           -------------------------------------------------
          | TOTAL ENERGY              -19.524605328954 Eh   |
          | TOTAL ENTHALPY            -19.458353713383 Eh   |
          | TOTAL FREE ENERGY         -19.496695636325 Eh   |
          | GRADIENT NORM               0.000606945642 Eh/α |
          | HOMO-LUMO GAP               4.007726525543 eV   |
           -------------------------------------------------

 * finished run on 2025/10/18 at 05:23:39.915
normal termination of xtb
