   * xtb version 6.7.1 (edcfbbe) compiled by 'albert@albert-system' on 2024-07-22

   ID    Z sym.   atoms
    1    7 N      1
    2    6 C      2
    3    1 H      3, 5, 8, 9
    4    8 O      4, 6, 7

          program call               : xtb tb_lite_results_shiftn0p1_gp405_b0_rot270_complex.xyz --ohess --chrg -1 --alpb water
      * Solvation model:               ALPB
        Solvent                        water
        Solvent mass                       1.8000E+01 g/mol
          :  Hamiltonian                  GFN2-xTB          :
 * total energy  :   -19.5210852 Eh     change       -0.1094236E-11 Eh
 * total energy  :   -19.5241058 Eh     change       -0.3020606E-02 Eh
 * total energy  :   -19.5243257 Eh     change       -0.2198234E-03 Eh
 * total energy  :   -19.5243489 Eh     change       -0.2321742E-04 Eh
 * total energy  :   -19.5243940 Eh     change       -0.4512512E-04 Eh
 * total energy  :   -19.5244292 Eh     change       -0.3514313E-04 Eh
 * total energy  :   -19.5244746 Eh     change       -0.4544211E-04 Eh
 * total energy  :   -19.5245292 Eh     change       -0.5459012E-04 Eh
 * total energy  :   -19.5245720 Eh     change       -0.4281225E-04 Eh
 * total energy  :   -19.5245822 Eh     change       -0.1017208E-04 Eh
 * total energy  :   -19.5245834 Eh     change       -0.1223889E-05 Eh
 * total energy  :   -19.5245861 Eh     change       -0.2654396E-05 Eh
   *** GEOMETRY OPTIMIZATION CONVERGED AFTER 12 ITERATIONS ***

 final structure:
================
9
 xtb: 6.7.1 (edcfbbe)
N           -6.57968556714520       -2.88751302334753        3.35949678066158
C           -5.59614070442118       -2.71668091216516        2.53582630738188
H           -5.80800764665916       -2.72429161819701        1.48665142215380
O           -7.77836394627139       -3.06226925190104        2.94557665937924
H           -4.61447841846904       -2.57494196402854        2.93873937935879
O           -6.37693827603475       -2.88597086740441        4.63525522196987
O           -8.87501999532339       -3.11215092228435        5.76512657207966
H           -7.93611528358474       -3.02946531896135        5.48678592972581
H           -9.35115591664265       -3.18224648137323        4.92954536440923

          :  Hamiltonian                  GFN2-xTB          :
         :: gradient norm              0.000879568293 Eh/a0 ::
         :: HOMO-LUMO gap              4.010595581529 eV    ::
         :: SCC energy               -19.647392293526 Eh    ::
         :: -> dispersion             -0.004026846692 Eh    ::
         :: -> Gsolv                  -0.108523700415 Eh    ::
         :: repulsion energy           0.122806242993 Eh    ::

    * Orbital Energies and Occupations

         #    Occupation            Energy/Eh            Energy/eV
      -------------------------------------------------------------
         1        2.0000           -0.6909030             -18.8004
       ...           ...                  ...                  ...
         4        2.0000           -0.6376401             -17.3511
         5        2.0000           -0.5685290             -15.4705
         6        2.0000           -0.5602847             -15.2461
         7        2.0000           -0.5439271             -14.8010
         8        2.0000           -0.5263805             -14.3235
         9        2.0000           -0.5217671             -14.1980
        10        2.0000           -0.4861058             -13.2276
        11        2.0000           -0.4626464             -12.5892
        12        2.0000           -0.4178226             -11.3695
        13        2.0000           -0.4035521             -10.9812
        14        2.0000           -0.3910009             -10.6397
        15        2.0000           -0.3829983             -10.4219
        16        2.0000           -0.3568083              -9.7092 (HOMO)
        17                         -0.2094216              -5.6987 (LUMO)
        18                          0.0574470               1.5632
        19                          0.1368245               3.7232
        20                          0.1647638               4.4835
        21                          0.1733187               4.7162
        22                          0.2876874               7.8284
        23                          0.4408206              11.9953
        24                          0.4683417              12.7442
      -------------------------------------------------------------
                  HL-Gap            0.1473867 Eh            4.0106 eV

     #   Z          covCN         q      C6AA      α(0)
     1   7 N        2.754     0.405    15.145     5.780
     2   6 C        2.780    -0.140    31.571     9.203
     3   1 H        0.926     0.055     2.263     2.352
     4   8 O        0.931    -0.660    27.602     7.046
     5   1 H        0.926     0.054     2.275     2.359
     6   8 O        0.930    -0.667    27.785     7.069
     7   8 O        1.607    -0.682    27.245     7.045
     8   1 H        0.802     0.311     0.688     1.303
     9   1 H        0.805     0.326     0.649     1.265

Wiberg/Mayer (AO) data.
largest (>0.10) Wiberg bond orders for each atom

     #   Z sym  total        # sym  WBO       # sym  WBO       # sym  WBO
 ---------------------------------------------------------------------------
     1   7 N    3.860 --     2 C    1.527     4 O    1.180     6 O    1.151
     2   6 C    3.910 --     1 N    1.527     5 H    0.976     3 H    0.975
                             4 O    0.226     6 O    0.204
     3   1 H    0.997 --     2 C    0.975
     4   8 O    1.559 --     1 N    1.180     2 C    0.226     6 O    0.125
     5   1 H    0.997 --     2 C    0.976
     6   8 O    1.576 --     1 N    1.151     2 C    0.204     4 O    0.125
     7   8 O    1.767 --     9 H    0.890     8 H    0.846
     8   1 H    0.903 --     7 O    0.846
     9   1 H    0.894 --     7 O    0.890
 ---------------------------------------------------------------------------

molecular dipole:
                 x           y           z       tot (Debye)
 q only:       14.149       5.701      -8.343
   full:       14.354       5.722      -8.642      45.002

 projected vibrational frequencies (cm⁻¹)
eigval :       -0.00    -0.00     0.00     0.00     0.00     0.00
eigval :       31.94    70.09   195.48   262.20   345.55   502.50
eigval :      625.29   630.60   641.28   661.30   719.34  1017.42
eigval :     1041.30  1308.26  1324.16  1522.96  1633.79  3149.86
eigval :     3162.60  3208.72  3582.75

   temp. (K)  partition function   enthalpy   heat capacity  entropy
                                   cal/mol     cal/K/mol   cal/K/mol   J/K/mol
 298.15  VIB   95.4                 2541.598     14.994     15.916
         ROT  0.102E+06              888.752      2.981     25.896
         INT  0.972E+07             3430.351     17.975     41.811
         TR   0.667E+27             1481.254      4.968     38.962
         TOT                        4911.6047    22.9434    80.7728   337.9533

       T/K    H(0)-H(T)+PV         H(T)/Eh          T*S/Eh         G(T)/Eh
   ------------------------------------------------------------------------
    298.15    0.782714E-02    0.662334E-01    0.383778E-01    0.278556E-01
   ------------------------------------------------------------------------

         :::::::::::::::::::::::::::::::::::::::::::::::::::::
         ::                  THERMODYNAMIC                  ::
         :::::::::::::::::::::::::::::::::::::::::::::::::::::
         :: total free energy         -19.496730431996 Eh   ::
         ::.................................................::
         :: total energy              -19.524586050044 Eh   ::
         :: zero point energy           0.058406233849 Eh   ::
         :: G(RRHO) w/o ZPVE           -0.030550615801 Eh   ::
         :: G(RRHO) contrib.            0.027855618048 Eh   ::
         :::::::::::::::::::::::::::::::::::::::::::::::::::::

           -------------------------------------------------
          | TOTAL ENERGY              -19.524586050044 Eh   |
          | TOTAL ENTHALPY            -19.458352675828 Eh   |
          | TOTAL FREE ENERGY         -19.496730431996 Eh   |
          | GRADIENT NORM               0.000879161602 Eh/α |
          | HOMO-LUMO GAP               4.010596439984 eV   |
           -------------------------------------------------

 * finished run on 2025/10/18 at 05:23:43.995
normal termination of xtb
