   * xtb version 6.7.1 (edcfbbe) compiled by 'albert@albert-system' on 2024-07-22

   ID    Z sym.   atoms
    1    7 N      1
    2    6 C      2
    3    1 H      3, 5
    4    8 O      4, 6

          program call               : xtb tb_lite_results_shiftn0p1_gp227_b0_rot90_solute.xyz --ohess --chrg -1
          :  Hamiltonian                  GFN2-xTB          :
 * total energy  :   -14.3229735 Eh     change       -0.1271871E-10 Eh
 * total energy  :   -14.3253942 Eh     change       -0.2420743E-02 Eh
 * total energy  :   -14.3256149 Eh     change       -0.2206536E-03 Eh
 * total energy  :   -14.3256116 Eh     change        0.3247773E-05 Eh
 * total energy  :   -14.3256294 Eh     change       -0.1774732E-04 Eh
 * total energy  :   -14.3256297 Eh     change       -0.3139798E-06 Eh
   *** GEOMETRY OPTIMIZATION CONVERGED AFTER 6 ITERATIONS ***

 final structure:
================
6
 xtb: 6.7.1 (edcfbbe)
N           -6.59530799219971       -2.95198762079622        3.29773982283192
C           -5.55942760564860       -2.68653567458432        2.54312489884766
H           -5.69247397770332       -2.59264048047868        1.48094160042112
O           -7.74268996738815       -3.09585610285232        2.77302855603472
H           -4.59350017110272       -2.56690014478035        2.99855920050478
O           -6.45272346700017       -3.06570506047438        4.55441900891803

          :  Hamiltonian                  GFN2-xTB          :
         :: gradient norm              0.000145801753 Eh/a0 ::
         :: HOMO-LUMO gap              3.990542805094 eV    ::
         :: SCC energy               -14.416267220394 Eh    ::
         :: -> dispersion             -0.002732575693 Eh    ::
         :: repulsion energy           0.090637513281 Eh    ::

    * Orbital Energies and Occupations

         #    Occupation            Energy/Eh            Energy/eV
      -------------------------------------------------------------
         1        2.0000           -0.4829809             -13.1426
         2        2.0000           -0.4672269             -12.7139
         3        2.0000           -0.4332041             -11.7881
         4        2.0000           -0.3643609              -9.9148
         5        2.0000           -0.3563614              -9.6971
         6        2.0000           -0.3318633              -9.0305
         7        2.0000           -0.3291428              -8.9564
         8        2.0000           -0.2756446              -7.5007
         9        2.0000           -0.1917484              -5.2177
        10        2.0000           -0.1778074              -4.8384
        11        2.0000           -0.1715408              -4.6679
        12        2.0000           -0.1505412              -4.0964 (HOMO)
        13                         -0.0038914              -0.1059 (LUMO)
        14                          0.2741597               7.4603
        15                          0.3626963               9.8695
        16                          0.3824798              10.4078
        17                          0.6402214              17.4213
        18                          0.6415468              17.4574
      -------------------------------------------------------------
                  HL-Gap            0.1466497 Eh            3.9905 eV

     #   Z          covCN         q      C6AA      α(0)
     1   7 N        2.755     0.440    14.727     5.700
     2   6 C        2.783    -0.172    32.462     9.332
     3   1 H        0.926    -0.017     3.375     2.873
     4   8 O        0.933    -0.617    26.480     6.901
     5   1 H        0.926    -0.017     3.375     2.873
     6   8 O        0.933    -0.617    26.480     6.901

Wiberg/Mayer (AO) data.
largest (>0.10) Wiberg bond orders for each atom

     #   Z sym  total        # sym  WBO       # sym  WBO       # sym  WBO
 ---------------------------------------------------------------------------
     1   7 N    3.884 --     2 C    1.454     6 O    1.214     4 O    1.214
     2   6 C    3.855 --     1 N    1.454     3 H    0.980     5 H    0.980
                             6 O    0.221     4 O    0.221
     3   1 H    1.000 --     2 C    0.980
     4   8 O    1.608 --     1 N    1.214     2 C    0.221     6 O    0.156
     5   1 H    1.000 --     2 C    0.980
     6   8 O    1.608 --     1 N    1.214     2 C    0.221     4 O    0.156
 ---------------------------------------------------------------------------

molecular dipole:
                 x           y           z       tot (Debye)
 q only:       13.203       5.768      -6.770
   full:       13.399       5.818      -6.914      41.079

 projected vibrational frequencies (cm⁻¹)
eigval :       -0.00    -0.00     0.00     0.00     0.00     0.00
eigval :      472.63   505.06   617.60   631.16   702.23  1049.07
eigval :     1060.36  1358.18  1412.37  1604.88  3099.15  3138.45

   temp. (K)  partition function   enthalpy   heat capacity  entropy
                                   cal/mol     cal/K/mol   cal/K/mol   J/K/mol
 298.15  VIB   1.42                  596.196      6.253      2.695
         ROT  0.138E+05              888.752      2.981     21.931
         INT  0.196E+05             1484.948      9.234     24.626
         TR   0.450E+27             1481.254      4.968     38.180
         TOT                        2966.2018    14.2023    62.8059   262.7798

       T/K    H(0)-H(T)+PV         H(T)/Eh          T*S/Eh         G(T)/Eh
   ------------------------------------------------------------------------
    298.15    0.472694E-02    0.403829E-01    0.298411E-01    0.105418E-01
   ------------------------------------------------------------------------

         :::::::::::::::::::::::::::::::::::::::::::::::::::::
         ::                  THERMODYNAMIC                  ::
         :::::::::::::::::::::::::::::::::::::::::::::::::::::
         :: total free energy         -14.315087890015 Eh   ::
         ::.................................................::
         :: total energy              -14.325629707113 Eh   ::
         :: zero point energy           0.035655970530 Eh   ::
         :: G(RRHO) w/o ZPVE           -0.025114153432 Eh   ::
         :: G(RRHO) contrib.            0.010541817097 Eh   ::
         :::::::::::::::::::::::::::::::::::::::::::::::::::::

           -------------------------------------------------
          | TOTAL ENERGY              -14.325629707113 Eh   |
          | TOTAL ENTHALPY            -14.285246793095 Eh   |
          | TOTAL FREE ENERGY         -14.315087890015 Eh   |
          | GRADIENT NORM               0.000145652205 Eh/α |
          | HOMO-LUMO GAP               3.990541904729 eV   |
           -------------------------------------------------

 * finished run on 2025/10/18 at 05:23:39.087
normal termination of xtb
