   * xtb version 6.7.1 (edcfbbe) compiled by 'albert@albert-system' on 2024-07-22

   ID    Z sym.   atoms
    1   16 S      1
    2    1 H      2

          program call               : xtb xyz.xyz --alpb water --charge -1 --ohess
      * Solvation model:               ALPB
        Solvent                        water
        Solvent mass                       1.8000E+01 g/mol
          :  Hamiltonian                  GFN2-xTB          :
 * total energy  :    -4.0528935 Eh     change       -0.6217249E-14 Eh
 * total energy  :    -4.0529173 Eh     change       -0.2388203E-04 Eh
 * total energy  :    -4.0529246 Eh     change       -0.7270972E-05 Eh
 * total energy  :    -4.0529246 Eh     change       -0.4876181E-08 Eh
   *** GEOMETRY OPTIMIZATION CONVERGED AFTER 4 ITERATIONS ***

 final structure:
================
2
 xtb: 6.7.1 (edcfbbe)
S           -4.92565894109966       -3.62353579024221        0.85473390058397
H           -6.03836105890034       -4.31486620975779        1.13588809941603

          :  Hamiltonian                  GFN2-xTB          :
         :: gradient norm              0.000038437482 Eh/a0 ::
         :: HOMO-LUMO gap              5.151616773901 eV    ::
         :: SCC energy                -4.061778068540 Eh    ::
         :: -> dispersion             -0.000243875263 Eh    ::
         :: -> Gsolv                  -0.102889627005 Eh    ::
         :: repulsion energy           0.008853445125 Eh    ::

    * Orbital Energies and Occupations

         #    Occupation            Energy/Eh            Energy/eV
      -------------------------------------------------------------
         1        2.0000           -0.6299927             -17.1430
         2        2.0000           -0.4252656             -11.5721
         3        2.0000           -0.2957649              -8.0482
         4        2.0000           -0.2957649              -8.0482 (HOMO)
         5                         -0.1064465              -2.8966 (LUMO)
         6                          0.0341278               0.9287
         7                          0.0341278               0.9287
         8                          0.0531933               1.4475
         9                          0.0531933               1.4475
        10                          0.4776874              12.9985
      -------------------------------------------------------------
                  HL-Gap            0.1893184 Eh            5.1516 eV

     #   Z          covCN         q      C6AA      α(0)
     1  16 S        0.922    -1.045   191.045    23.378
     2   1 H        0.922     0.045     2.384     2.415

Wiberg/Mayer (AO) data.
largest (>0.10) Wiberg bond orders for each atom

     #   Z sym  total        # sym  WBO       # sym  WBO       # sym  WBO
 ---------------------------------------------------------------------------
     1  16 S    0.998 --     2 H    0.998
     2   1 H    0.998 --     1 S    0.998
 ---------------------------------------------------------------------------

molecular dipole:
                 x           y           z       tot (Debye)
 q only:        9.214       6.789      -1.591
   full:        9.056       6.691      -1.551      28.889

   temp. (K)  partition function   enthalpy   heat capacity  entropy
                                   cal/mol     cal/K/mol   cal/K/mol   J/K/mol
 298.15  VIB   1.00                    0.077      0.003      0.000
         ROT   21.6                  592.502      1.987      8.090
         INT   21.6                  592.579      1.990      8.090
         TR   0.184E+27             1481.254      4.968     36.403
         TOT                        2073.8324     6.9583    44.4938   186.1621

       T/K    H(0)-H(T)+PV         H(T)/Eh          T*S/Eh         G(T)/Eh
   ------------------------------------------------------------------------
    298.15    0.330486E-02    0.867775E-02    0.211404E-01   -0.124627E-01
   ------------------------------------------------------------------------

         :::::::::::::::::::::::::::::::::::::::::::::::::::::
         ::                  THERMODYNAMIC                  ::
         :::::::::::::::::::::::::::::::::::::::::::::::::::::
         :: total free energy          -4.065387317330 Eh   ::
         ::.................................................::
         :: total energy               -4.052924623601 Eh   ::
         :: zero point energy           0.005372884602 Eh   ::
         :: G(RRHO) w/o ZPVE           -0.017835578332 Eh   ::
         :: G(RRHO) contrib.           -0.012462693730 Eh   ::
         :::::::::::::::::::::::::::::::::::::::::::::::::::::

           -------------------------------------------------
          | TOTAL ENERGY               -4.052924623601 Eh   |
          | TOTAL ENTHALPY             -4.044246876652 Eh   |
          | TOTAL FREE ENERGY          -4.065387317330 Eh   |
          | GRADIENT NORM               0.000038417050 Eh/α |
          | HOMO-LUMO GAP               5.151616519022 eV   |
           -------------------------------------------------

 * finished run on 2025/10/18 at 07:06:21.281
