   * xtb version 6.7.1 (edcfbbe) compiled by 'albert@albert-system' on 2024-07-22

   ID    Z sym.   atoms
    1   17 Cl     1
    2    8 O      2
    3    1 H      3, 4

          program call               : xtb tb_lite_results_shiftn0p05_gp86_b0_rot180_complex.xyz --ohess --chrg -1 --alpb water
      * Solvation model:               ALPB
        Solvent                        water
        Solvent mass                       1.8000E+01 g/mol
          :  Hamiltonian                  GFN2-xTB          :
 * total energy  :    -9.9850212 Eh     change       -0.2400569E-10 Eh
 * total energy  :    -9.9862899 Eh     change       -0.1268702E-02 Eh
 * total energy  :    -9.9863635 Eh     change       -0.7356883E-04 Eh
 * total energy  :    -9.9864065 Eh     change       -0.4304641E-04 Eh
 * total energy  :    -9.9864105 Eh     change       -0.3980078E-05 Eh
 * total energy  :    -9.9864119 Eh     change       -0.1374534E-05 Eh
   *** GEOMETRY OPTIMIZATION CONVERGED AFTER 6 ITERATIONS ***

 final structure:
================
4
 xtb: 6.7.1 (edcfbbe)
Cl          -0.10642185520589       -0.11791305797398        0.00000000379850
O            1.46342192169563        2.72380258459694        0.00000000722561
H            1.10604428608573        1.82450124999249       -0.00000001137702
H            0.69613715364124        3.30686471571554        0.00000000035292

          :  Hamiltonian                  GFN2-xTB          :
         :: gradient norm              0.000172641133 Eh/a0 ::
         :: HOMO-LUMO gap             13.678608210368 eV    ::
         :: SCC energy               -10.018810953186 Eh    ::
         :: -> dispersion             -0.000811390343 Eh    ::
         :: -> Gsolv                  -0.116443537923 Eh    ::
         :: repulsion energy           0.032399064388 Eh    ::

    * Orbital Energies and Occupations

         #    Occupation            Energy/Eh            Energy/eV
      -------------------------------------------------------------
         1        2.0000           -0.9988707             -27.1807
         2        2.0000           -0.6618045             -18.0086
         3        2.0000           -0.5397650             -14.6878
         4        2.0000           -0.4926277             -13.4051
         5        2.0000           -0.4276350             -11.6365
         6        2.0000           -0.4024631             -10.9516
         7        2.0000           -0.4009994             -10.9117
         8        2.0000           -0.4008747             -10.9084 (HOMO)
         9                          0.1018049               2.7703 (LUMO)
        10                          0.1266165               3.4454
        11                          0.1267308               3.4485
        12                          0.1279301               3.4812
        13                          0.1279336               3.4812
        14                          0.1438739               3.9150
        15                          0.2895240               7.8783
      -------------------------------------------------------------
                  HL-Gap            0.5026796 Eh           13.6786 eV

     #   Z          covCN         q      C6AA      α(0)
     1  17 Cl       0.000    -0.986   126.431    17.112
     2   8 O        1.610    -0.674    27.023     7.016
     3   1 H        0.805     0.303     0.713     1.326
     4   1 H        0.805     0.357     0.572     1.188

Wiberg/Mayer (AO) data.
largest (>0.10) Wiberg bond orders for each atom

     #   Z sym  total        # sym  WBO       # sym  WBO       # sym  WBO
 ---------------------------------------------------------------------------
     1  17 Cl   0.028
     2   8 O    1.773 --     3 H    0.891     4 H    0.873
     3   1 H    0.908 --     2 O    0.891
     4   1 H    0.872 --     2 O    0.873
 ---------------------------------------------------------------------------

molecular dipole:
                 x           y           z       tot (Debye)
 q only:       -0.563       0.026       0.000
   full:       -0.802      -0.215       0.000       2.111

 projected vibrational frequencies (cm⁻¹)
eigval :       -0.00    -0.00    -0.00     0.00     0.00     0.00
eigval :      117.64   293.62   493.48  1498.09  3482.06  3587.08

   temp. (K)  partition function   enthalpy   heat capacity  entropy
                                   cal/mol     cal/K/mol   cal/K/mol   J/K/mol
 298.15  VIB   3.36                  855.649      4.930      5.265
         ROT  0.889E+04              888.752      2.981     21.049
         INT  0.299E+05             1744.402      7.911     26.314
         TR   0.378E+27             1481.254      4.968     37.835
         TOT                        3225.6557    12.8791    64.1486   268.3979

       T/K    H(0)-H(T)+PV         H(T)/Eh          T*S/Eh         G(T)/Eh
   ------------------------------------------------------------------------
    298.15    0.514041E-02    0.267191E-01    0.304791E-01   -0.375995E-02
   ------------------------------------------------------------------------

         :::::::::::::::::::::::::::::::::::::::::::::::::::::
         ::                  THERMODYNAMIC                  ::
         :::::::::::::::::::::::::::::::::::::::::::::::::::::
         :: total free energy          -9.990171836164 Eh   ::
         ::.................................................::
         :: total energy               -9.986411888052 Eh   ::
         :: zero point energy           0.021578729697 Eh   ::
         :: G(RRHO) w/o ZPVE           -0.025338677809 Eh   ::
         :: G(RRHO) contrib.           -0.003759948112 Eh   ::
         :::::::::::::::::::::::::::::::::::::::::::::::::::::

           -------------------------------------------------
          | TOTAL ENERGY               -9.986411888052 Eh   |
          | TOTAL ENTHALPY             -9.959692748793 Eh   |
          | TOTAL FREE ENERGY          -9.990171836164 Eh   |
          | GRADIENT NORM               0.000172650088 Eh/α |
          | HOMO-LUMO GAP              13.678608857247 eV   |
           -------------------------------------------------

 * finished run on 2025/10/18 at 21:32:20.093
normal termination of xtb
