   * xtb version 6.7.1 (edcfbbe) compiled by 'albert@albert-system' on 2024-07-22

   ID    Z sym.   atoms
    1   17 Cl     1
    2    8 O      2
    3    1 H      3, 4

          program call               : xtb tb_lite_results_shiftn0p05_gp87_b0_rot0_complex.xyz --ohess --chrg -1 --alpb water
      * Solvation model:               ALPB
        Solvent                        water
        Solvent mass                       1.8000E+01 g/mol
          :  Hamiltonian                  GFN2-xTB          :
 * total energy  :    -9.9850212 Eh     change       -0.2421174E-10 Eh
 * total energy  :    -9.9862898 Eh     change       -0.1268603E-02 Eh
 * total energy  :    -9.9863632 Eh     change       -0.7342403E-04 Eh
 * total energy  :    -9.9864064 Eh     change       -0.4318994E-04 Eh
 * total energy  :    -9.9864105 Eh     change       -0.4070300E-05 Eh
 * total energy  :    -9.9864120 Eh     change       -0.1476021E-05 Eh
   *** GEOMETRY OPTIMIZATION CONVERGED AFTER 6 ITERATIONS ***

 final structure:
================
4
 xtb: 6.7.1 (edcfbbe)
Cl           0.10492582125699       -0.11875051987892       -0.00000000311071
O           -1.46281809216851        2.72439909889859       -0.00000000674291
H           -1.10624743292971        1.82479087321883        0.00000001015139
H           -0.69504180237550        3.30681604009248       -0.00000000029777

          :  Hamiltonian                  GFN2-xTB          :
         :: gradient norm              0.000181129317 Eh/a0 ::
         :: HOMO-LUMO gap             13.678806046734 eV    ::
         :: SCC energy               -10.018812599376 Eh    ::
         :: -> dispersion             -0.000811338512 Eh    ::
         :: -> Gsolv                  -0.116445399948 Eh    ::
         :: repulsion energy           0.032400618758 Eh    ::

    * Orbital Energies and Occupations

         #    Occupation            Energy/Eh            Energy/eV
      -------------------------------------------------------------
         1        2.0000           -0.9988684             -27.1806
         2        2.0000           -0.6618076             -18.0087
         3        2.0000           -0.5397717             -14.6879
         4        2.0000           -0.4926272             -13.4051
         5        2.0000           -0.4276386             -11.6366
         6        2.0000           -0.4024627             -10.9516
         7        2.0000           -0.4009987             -10.9117
         8        2.0000           -0.4008740             -10.9083 (HOMO)
         9                          0.1018129               2.7705 (LUMO)
        10                          0.1266205               3.4455
        11                          0.1267348               3.4486
        12                          0.1279336               3.4813
        13                          0.1279371               3.4813
        14                          0.1438632               3.9147
        15                          0.2895242               7.8784
      -------------------------------------------------------------
                  HL-Gap            0.5026869 Eh           13.6788 eV

     #   Z          covCN         q      C6AA      α(0)
     1  17 Cl       0.000    -0.986   126.432    17.112
     2   8 O        1.610    -0.674    27.023     7.016
     3   1 H        0.805     0.303     0.713     1.326
     4   1 H        0.805     0.357     0.572     1.188

Wiberg/Mayer (AO) data.
largest (>0.10) Wiberg bond orders for each atom

     #   Z sym  total        # sym  WBO       # sym  WBO       # sym  WBO
 ---------------------------------------------------------------------------
     1  17 Cl   0.028
     2   8 O    1.773 --     3 H    0.891     4 H    0.873
     3   1 H    0.908 --     2 O    0.891
     4   1 H    0.872 --     2 O    0.873
 ---------------------------------------------------------------------------

molecular dipole:
                 x           y           z       tot (Debye)
 q only:        0.565       0.027      -0.000
   full:        0.804      -0.215      -0.000       2.116

 projected vibrational frequencies (cm⁻¹)
eigval :       -0.00    -0.00    -0.00     0.00     0.00     0.00
eigval :      117.54   300.61   492.75  1500.96  3482.32  3587.18

   temp. (K)  partition function   enthalpy   heat capacity  entropy
                                   cal/mol     cal/K/mol   cal/K/mol   J/K/mol
 298.15  VIB   3.33                  850.546      4.918      5.228
         ROT  0.889E+04              888.752      2.981     21.050
         INT  0.296E+05             1739.298      7.899     26.278
         TR   0.378E+27             1481.254      4.968     37.835
         TOT                        3220.5520    12.8669    64.1127   268.2474

       T/K    H(0)-H(T)+PV         H(T)/Eh          T*S/Eh         G(T)/Eh
   ------------------------------------------------------------------------
    298.15    0.513228E-02    0.267324E-01    0.304620E-01   -0.372959E-02
   ------------------------------------------------------------------------

         :::::::::::::::::::::::::::::::::::::::::::::::::::::
         ::                  THERMODYNAMIC                  ::
         :::::::::::::::::::::::::::::::::::::::::::::::::::::
         :: total free energy          -9.990141571584 Eh   ::
         ::.................................................::
         :: total energy               -9.986411981388 Eh   ::
         :: zero point energy           0.021600133942 Eh   ::
         :: G(RRHO) w/o ZPVE           -0.025329724138 Eh   ::
         :: G(RRHO) contrib.           -0.003729590196 Eh   ::
         :::::::::::::::::::::::::::::::::::::::::::::::::::::

           -------------------------------------------------
          | TOTAL ENERGY               -9.986411981388 Eh   |
          | TOTAL ENTHALPY             -9.959679571081 Eh   |
          | TOTAL FREE ENERGY          -9.990141571584 Eh   |
          | GRADIENT NORM               0.000181163584 Eh/α |
          | HOMO-LUMO GAP              13.678806710788 eV   |
           -------------------------------------------------

 * finished run on 2025/10/18 at 21:32:16.944
normal termination of xtb
