                         Program Version 5.0.4 -  RELEASE  -
|  1> !OPT PBE D3BJ def2-TZVP CPCM(water)
|  2>
|  3> *xyz -1 1
|  4> C     -5.778971   -2.765407    2.583048
|  5> Cl    -4.365028   -1.796000    2.521407
|  6> Cl    -6.201740   -3.751701    1.244662
|  7> Cl    -6.770172   -2.748483    3.983055
|  8> *
|  9>
| 10>                          ****END OF INPUT****
 Total Charge           Charge          ....   -1
 Multiplicity           Mult            ....    1
 Number of Electrons    NEL             ....   58
 Basis Dimension        Dim             ....  142

ORBITAL ENERGIES
----------------

  NO   OCC          E(Eh)            E(eV)
   0   2.0000    -100.635838     -2738.4404
   1   2.0000    -100.635792     -2738.4391
   2   2.0000    -100.635784     -2738.4389
   3   2.0000      -9.902055      -269.4486
   4   2.0000      -9.148075      -248.9318
   5   2.0000      -9.148031      -248.9306
   6   2.0000      -9.148011      -248.9300
   7   2.0000      -6.971253      -189.6974
   8   2.0000      -6.971207      -189.6962
   9   2.0000      -6.971201      -189.6960
  10   2.0000      -6.962313      -189.4542
  11   2.0000      -6.962266      -189.4529
  12   2.0000      -6.962262      -189.4528
  13   2.0000      -6.960633      -189.4084
  14   2.0000      -6.960581      -189.4071
  15   2.0000      -6.960580      -189.4070
  16   2.0000      -0.798120       -21.7179
  17   2.0000      -0.724616       -19.7178
  18   2.0000      -0.724578       -19.7168
  19   2.0000      -0.484928       -13.1955
  20   2.0000      -0.380649       -10.3580
  21   2.0000      -0.380637       -10.3577
  22   2.0000      -0.323087        -8.7916
  23   2.0000      -0.269438        -7.3318
  24   2.0000      -0.269426        -7.3314
  25   2.0000      -0.256285        -6.9739
  26   2.0000      -0.256223        -6.9722
  27   2.0000      -0.235319        -6.4033
  28   2.0000      -0.067029        -1.8239
  29   0.0000      -0.011360        -0.3091
  30   0.0000       0.074870         2.0373
  31   0.0000       0.074874         2.0374
  32   0.0000       0.101821         2.7707
  33   0.0000       0.188992         5.1427

MULLIKEN ATOMIC CHARGES
-----------------------
   0 C :   -0.312268
   1 Cl:   -0.229212
   2 Cl:   -0.229232
   3 Cl:   -0.229288
Sum of atomic charges:   -1.0000000

LOEWDIN ATOMIC CHARGES
----------------------
   0 C :   -1.553608
   1 Cl:    0.184569
   2 Cl:    0.184480
   3 Cl:    0.184559

  Mayer bond orders larger than 0.100000
B(  0-C ,  1-Cl) :   1.0860 B(  0-C ,  2-Cl) :   1.0863 B(  0-C ,  3-Cl) :   1.0859

Dispersion correction           -0.004608779
FINAL SINGLE POINT ENERGY     -1418.191229626811
Dispersion correction            ... done
Dispersion correction           -0.004579727
FINAL SINGLE POINT ENERGY     -1418.192160159056
Dispersion correction            ... done
Dispersion correction           -0.004562834
FINAL SINGLE POINT ENERGY     -1418.192315171981
Dispersion correction            ... done
FINAL SINGLE POINT ENERGY     -1418.192415634276
FINAL SINGLE POINT ENERGY     -1418.192418205347
FINAL SINGLE POINT ENERGY     -1418.192418215597
FINAL SINGLE POINT ENERGY     -1418.192418247814
FINAL SINGLE POINT ENERGY     -1418.192418316999
FINAL SINGLE POINT ENERGY     -1418.192418318441
FINAL SINGLE POINT ENERGY     -1418.192418332369
FINAL SINGLE POINT ENERGY     -1418.192388103381
FINAL SINGLE POINT ENERGY     -1418.192420533867
FINAL SINGLE POINT ENERGY     -1418.192420547850
FINAL SINGLE POINT ENERGY     -1418.192420549864
FINAL SINGLE POINT ENERGY     -1418.192420564612
FINAL SINGLE POINT ENERGY     -1418.192420568874
FINAL SINGLE POINT ENERGY     -1418.192420571740
Dispersion correction           -0.004561862
FINAL SINGLE POINT ENERGY     -1418.192420576374
Dispersion correction            ... done
Dispersion correction           -0.004561731
FINAL SINGLE POINT ENERGY     -1418.192420583953
Dispersion correction            ... done

CARTESIAN COORDINATES (ANGSTROEM)
---------------------------------
  C     -5.769815   -2.777391    2.589339
  Cl    -4.344927   -1.776085    2.518401
  Cl    -6.211880   -3.763777    1.221029
  Cl    -6.789289   -2.744338    4.003403

Dispersion correction           -0.004561759
FINAL SINGLE POINT ENERGY     -1418.192420587214
Dispersion correction            ... done

DIPOLE MOMENT
-------------
                                X             Y             Z
Electronic contribution:     -0.63946       0.86850      -0.44195
Nuclear contribution   :      0.02044      -0.02745       0.01409
                        -----------------------------------------
Total Dipole Moment    :     -0.61902       0.84105      -0.42786
                        -----------------------------------------
Magnitude (a.u.)       :      1.12855
Magnitude (Debye)      :      2.86854

Rotational constants in cm-1:     0.104470     0.104155     0.052185
Rotational constants in MHz :  3131.925400  3122.476807  1564.453768

                             ****ORCA TERMINATED NORMALLY****
TOTAL RUN TIME: 0 days 0 hours 6 minutes 35 seconds 633 msec
