   * xtb version 6.7.1 (edcfbbe) compiled by 'albert@albert-system' on 2024-07-22

   ID    Z sym.   atoms
    1    8 O      1, 2

          program call               : xtb xyz.xyz --charge -1 --ohess
          :  Hamiltonian                  GFN2-xTB          :
 * total energy  :    -8.1640146 Eh     change       -0.1776357E-14 Eh
 * total energy  :    -8.1675711 Eh     change       -0.3556503E-02 Eh
 * total energy  :    -8.1677035 Eh     change       -0.1324258E-03 Eh
 * total energy  :    -8.1677069 Eh     change       -0.3420212E-05 Eh
   *** GEOMETRY OPTIMIZATION CONVERGED AFTER 4 ITERATIONS ***

 final structure:
================
2
 xtb: 6.7.1 (edcfbbe)
O           -3.00727789674504       -4.53771341875273        2.75375962601345
O           -4.16282410325496       -5.19531458124727        2.57683637398655

          :  Hamiltonian                  GFN2-xTB          :
         :: gradient norm              0.000091999237 Eh/a0 ::
         :: HOMO-LUMO gap              9.868366468707 eV    ::
         :: SCC energy                -8.169821195616 Eh    ::
         :: -> dispersion             -0.000306037781 Eh    ::
         :: repulsion energy           0.002114287527 Eh    ::

    * Orbital Energies and Occupations

         #    Occupation            Energy/Eh            Energy/eV
      -------------------------------------------------------------
         1        2.0000           -0.3925841             -10.6828
         2        2.0000           -0.3578150              -9.7366
         3        2.0000           -0.2456400              -6.6842
         4        2.0000           -0.2213106              -6.0222
         5        2.0000           -0.2213106              -6.0222
         6        1.5000           -0.0803369              -2.1861
         7        1.5000           -0.0803369              -2.1861 (HOMO)
         8                          0.2823189               7.6823 (LUMO)
      -------------------------------------------------------------
                  HL-Gap            0.3626558 Eh            9.8684 eV

     #   Z          covCN         q      C6AA      α(0)
     1   8 O        0.965    -0.500    23.725     6.533
     2   8 O        0.965    -0.500    23.725     6.533

Wiberg/Mayer (AO) data.
largest (>0.10) Wiberg bond orders for each atom

     #   Z sym  total        # sym  WBO       # sym  WBO       # sym  WBO
 ---------------------------------------------------------------------------
     1   8 O    1.250 --     2 O    1.250
     2   8 O    1.250 --     1 O    1.250
 ---------------------------------------------------------------------------

molecular dipole:
                 x           y           z       tot (Debye)
 q only:        6.775       9.196      -5.037
   full:        6.775       9.196      -5.037      31.730

   temp. (K)  partition function   enthalpy   heat capacity  entropy
                                   cal/mol     cal/K/mol   cal/K/mol   J/K/mol
 298.15  VIB   1.00                    6.664      0.142      0.026
         ROT   88.5                  592.502      1.987     10.895
         INT   88.6                  599.165      2.129     10.921
         TR   0.175E+27             1481.254      4.968     36.305
         TOT                        2080.4193     7.0973    47.2260   197.5938

       T/K    H(0)-H(T)+PV         H(T)/Eh          T*S/Eh         G(T)/Eh
   ------------------------------------------------------------------------
    298.15    0.331536E-02    0.630635E-02    0.224386E-01   -0.161323E-01
   ------------------------------------------------------------------------

         :::::::::::::::::::::::::::::::::::::::::::::::::::::
         ::                  THERMODYNAMIC                  ::
         :::::::::::::::::::::::::::::::::::::::::::::::::::::
         :: total free energy          -8.183839170467 Eh   ::
         ::.................................................::
         :: total energy               -8.167706908089 Eh   ::
         :: zero point energy           0.002990993851 Eh   ::
         :: G(RRHO) w/o ZPVE           -0.019123256229 Eh   ::
         :: G(RRHO) contrib.           -0.016132262378 Eh   ::
         :::::::::::::::::::::::::::::::::::::::::::::::::::::

           -------------------------------------------------
          | TOTAL ENERGY               -8.167706908089 Eh   |
          | TOTAL ENTHALPY             -8.161400554983 Eh   |
          | TOTAL FREE ENERGY          -8.183839170467 Eh   |
          | GRADIENT NORM               0.000091999237 Eh/α |
          | HOMO-LUMO GAP               9.868366468685 eV   |
           -------------------------------------------------

 * finished run on 2025/10/18 at 05:02:44.194
