   * xtb version 6.7.1 (edcfbbe) compiled by 'albert@albert-system' on 2024-07-22

   ID    Z sym.   atoms
    1    6 C      1, 2, 6, 11, 12, 15
    2    1 H      3-5, 7, 8, 13, 14, 16-19
    3    8 O      9, 10

          program call               : xtb xyz.xyz --alpb water --charge -1 --ohess
      * Solvation model:               ALPB
        Solvent                        water
        Solvent mass                       1.8000E+01 g/mol
          :  Hamiltonian                  GFN2-xTB          :
 * total energy  :   -26.9282164 Eh     change       -0.5922729E-10 Eh
 * total energy  :   -26.9301452 Eh     change       -0.1928751E-02 Eh
 * total energy  :   -26.9304367 Eh     change       -0.2914855E-03 Eh
 * total energy  :   -26.9304537 Eh     change       -0.1698457E-04 Eh
 * total energy  :   -26.9304535 Eh     change        0.2140575E-06 Eh
 * total energy  :   -26.9304653 Eh     change       -0.1180647E-04 Eh
 * total energy  :   -26.9304702 Eh     change       -0.4908749E-05 Eh
   *** GEOMETRY OPTIMIZATION CONVERGED AFTER 7 ITERATIONS ***

 final structure:
================
19
 xtb: 6.7.1 (edcfbbe)
C           -5.30361823878482       -3.61862532839382        0.49822362149340
C           -6.50101471952839       -4.13159196350860        1.28428719711444
H           -2.07372628696073       -1.58183625652043        2.21812189030361
H           -1.59715995829392       -0.75665986040572        0.73089269275198
H           -3.05080602665465       -0.25095199340680        1.59786071708382
C           -7.34024920051133       -5.19120531160025        0.52047043797577
H           -6.18566635978767       -4.59998343353952        2.22058714476995
H           -7.18418223602120       -3.31688833320645        1.53881180233239
O           -6.98673010251697       -5.51535766484705       -0.63113691921544
O           -8.32873775993586       -5.65204214928726        1.13499262014339
C           -4.47928930428042       -2.60843668426963        1.29149060989112
C           -3.27623854971018       -2.09609448486560        0.50309913835009
H           -5.12062847795426       -1.76807083593537        1.56782298191276
H           -4.13614577445627       -3.08153449572883        2.21475809059923
C           -2.44502178151577       -1.10763190999116        1.31290749679900
H           -2.65700996224927       -2.94701494050864        0.21101731992183
H           -3.63055609927924       -1.61821281757061       -0.41278151851582
H           -4.68632826450453       -4.47480313093241        0.21395479700335
H           -5.66594189705450       -3.17050140548187       -0.43049612071492

          :  Hamiltonian                  GFN2-xTB          :
         :: gradient norm              0.000626622836 Eh/a0 ::
         :: HOMO-LUMO gap              5.123446734783 eV    ::
         :: SCC energy               -27.234519626290 Eh    ::
         :: -> dispersion             -0.011791646329 Eh    ::
         :: -> Gsolv                  -0.113831440903 Eh    ::
         :: repulsion energy           0.304049460415 Eh    ::

    * Orbital Energies and Occupations

         #    Occupation            Energy/Eh            Energy/eV
      -------------------------------------------------------------
         1        2.0000           -0.6621589             -18.0183
       ...           ...                  ...                  ...
        12        2.0000           -0.4927182             -13.4075
        13        2.0000           -0.4819657             -13.1150
        14        2.0000           -0.4815403             -13.1034
        15        2.0000           -0.4713927             -12.8272
        16        2.0000           -0.4520704             -12.3015
        17        2.0000           -0.4439711             -12.0811
        18        2.0000           -0.4336599             -11.8005
        19        2.0000           -0.4271768             -11.6241
        20        2.0000           -0.4258466             -11.5879
        21        2.0000           -0.4177063             -11.3664
        22        2.0000           -0.3895727             -10.6008
        23        2.0000           -0.3723369             -10.1318
        24        2.0000           -0.3522399              -9.5849 (HOMO)
        25                         -0.1639567              -4.4615 (LUMO)
        26                          0.0629411               1.7127
        27                          0.1187800               3.2322
        28                          0.1192130               3.2440
        29                          0.1334429               3.6312
        30                          0.1541827               4.1955
        31                          0.1599041               4.3512
        32                          0.1733456               4.7170
        33                          0.1761383               4.7930
        34                          0.1883609               5.1256
        35                          0.1931454               5.2558
       ...                                ...                  ...
        43                          0.6242802              16.9875
      -------------------------------------------------------------
                  HL-Gap            0.1882832 Eh            5.1234 eV

     #   Z          covCN         q      C6AA      α(0)
     1   6 C        3.802    -0.046    21.403     6.587
     2   6 C        3.799    -0.093    22.275     6.720
     3   1 H        0.925     0.041     2.436     2.441
     4   1 H        0.925     0.047     2.352     2.398
     5   1 H        0.925     0.041     2.432     2.439
     6   6 C        2.684     0.362    20.863     7.475
     7   1 H        0.924     0.021     2.719     2.579
     8   1 H        0.924     0.021     2.721     2.580
     9   8 O        0.856    -0.655    27.520     7.033
    10   8 O        0.856    -0.673    27.982     7.092
    11   6 C        3.803    -0.060    21.655     6.625
    12   6 C        3.801    -0.056    21.580     6.614
    13   1 H        0.924     0.031     2.569     2.506
    14   1 H        0.924     0.031     2.572     2.508
    15   6 C        3.752    -0.113    22.729     6.799
    16   1 H        0.924     0.030     2.592     2.518
    17   1 H        0.924     0.030     2.587     2.515
    18   1 H        0.924     0.021     2.717     2.578
    19   1 H        0.924     0.021     2.717     2.578

Wiberg/Mayer (AO) data.
largest (>0.10) Wiberg bond orders for each atom

     #   Z sym  total        # sym  WBO       # sym  WBO       # sym  WBO
 ---------------------------------------------------------------------------
     1   6 C    3.996 --     2 C    1.012    11 C    1.005    19 H    0.978
                            18 H    0.977
     2   6 C    3.993 --     1 C    1.012     7 H    0.969     8 H    0.969
                             6 C    0.925
     3   1 H    0.998 --    15 C    0.988
     4   1 H    0.997 --    15 C    0.987
     5   1 H    0.998 --    15 C    0.988
     6   6 C    3.928 --     9 O    1.500    10 O    1.480     2 C    0.925
     7   1 H    1.000 --     2 C    0.969
     8   1 H    1.000 --     2 C    0.969
     9   8 O    1.785 --     6 C    1.500    10 O    0.211
    10   8 O    1.763 --     6 C    1.480     9 O    0.211
    11   6 C    3.996 --    12 C    1.007     1 C    1.005    13 H    0.978
                            14 H    0.977
    12   6 C    3.997 --    15 C    1.019    11 C    1.007    17 H    0.979
                            16 H    0.978
    13   1 H    0.999 --    11 C    0.978
    14   1 H    0.999 --    11 C    0.977
    15   6 C    3.995 --    12 C    1.019     3 H    0.988     5 H    0.988
                             4 H    0.987
    16   1 H    0.999 --    12 C    0.978
    17   1 H    0.999 --    12 C    0.979
    18   1 H    1.000 --     1 C    0.977
    19   1 H    1.000 --     1 C    0.978
 ---------------------------------------------------------------------------

molecular dipole:
                 x           y           z       tot (Debye)
 q only:       14.834      10.900      -0.344
   full:       14.812      10.934      -0.257      46.800

 projected vibrational frequencies (cm⁻¹)
eigval :       -0.00     0.00     0.00     0.00     0.00     0.00
eigval :      -27.36    47.72    95.35   101.25   119.87   219.31
eigval :      232.54   315.47   404.36   523.75   567.58   652.23
eigval :      763.71   793.91   866.31   892.51   945.38   964.83
eigval :     1061.99  1068.20  1098.70  1107.68  1133.29  1203.11
eigval :     1227.51  1247.05  1275.95  1283.86  1286.80  1335.64
eigval :     1343.37  1371.95  1405.62  1467.99  1493.04  1495.61
eigval :     1497.53  1501.15  1507.77  1652.98  2936.94  2948.51
eigval :     2955.99  2956.75  2964.36  2971.04  2975.16  2981.04
eigval :     3030.46  3034.50  3041.91

   temp. (K)  partition function   enthalpy   heat capacity  entropy
                                   cal/mol     cal/K/mol   cal/K/mol   J/K/mol
 298.15  VIB   370.                 3722.779     23.793     23.425
         ROT  0.487E+06              888.752      2.981     29.007
         INT  0.180E+09             4611.532     26.774     52.431
         TR   0.120E+28             1481.254      4.968     40.120
         TOT                        6092.7854    31.7423    92.5517   387.2361

       T/K    H(0)-H(T)+PV         H(T)/Eh          T*S/Eh         G(T)/Eh
   ------------------------------------------------------------------------
    298.15    0.970947E-02    0.170023E+00    0.439743E-01    0.126049E+00
   ------------------------------------------------------------------------

         :::::::::::::::::::::::::::::::::::::::::::::::::::::
         ::                  THERMODYNAMIC                  ::
         :::::::::::::::::::::::::::::::::::::::::::::::::::::
         :: total free energy         -26.804421413333 Eh   ::
         ::.................................................::
         :: total energy              -26.930470165906 Eh   ::
         :: zero point energy           0.160313556859 Eh   ::
         :: G(RRHO) w/o ZPVE           -0.034264804287 Eh   ::
         :: G(RRHO) contrib.            0.126048752572 Eh   ::
         :::::::::::::::::::::::::::::::::::::::::::::::::::::

           -------------------------------------------------
          | TOTAL ENERGY              -26.930470165906 Eh   |
          | TOTAL ENTHALPY            -26.760447137423 Eh   |
          | TOTAL FREE ENERGY         -26.804421413333 Eh   |
          | GRADIENT NORM               0.000626600824 Eh/α |
          | HOMO-LUMO GAP               5.123446940343 eV   |
           -------------------------------------------------

 * finished run on 2025/10/18 at 03:37:39.655
