   * xtb version 6.7.1 (edcfbbe) compiled by 'albert@albert-system' on 2024-07-22

   ID    Z sym.   atoms
    1    8 O      1
    2    6 C      2, 3
    3    1 H      4-8

          program call               : xtb xyz.xyz --alpb water --charge -1 --ohess
      * Solvation model:               ALPB
        Solvent                        water
        Solvent mass                       1.8000E+01 g/mol
          :  Hamiltonian                  GFN2-xTB          :
 * total energy  :   -11.1543123 Eh     change       -0.1346638E-09 Eh
 * total energy  :   -11.1560255 Eh     change       -0.1713169E-02 Eh
 * total energy  :   -11.1561607 Eh     change       -0.1351719E-03 Eh
 * total energy  :   -11.1561995 Eh     change       -0.3879437E-04 Eh
 * total energy  :   -11.1562128 Eh     change       -0.1329659E-04 Eh
 * total energy  :   -11.1562139 Eh     change       -0.1112445E-05 Eh
   *** GEOMETRY OPTIMIZATION CONVERGED AFTER 6 ITERATIONS ***

 final structure:
================
8
 xtb: 6.7.1 (edcfbbe)
O           -1.19819034640774        4.40835746819584       -1.36707640119366
C           -1.60470553405758        3.41966166215544       -0.58014825547506
C           -3.08563019662112        2.98766133680304       -0.74963384314632
H           -0.97588026595734        2.47411025032950       -0.71984200853171
H           -1.46733507809739        3.66919431035863        0.52796662940632
H           -3.24337486323930        2.66673163141011       -1.77637158067831
H           -3.32174664451294        2.17624252501234       -0.06522539517521
H           -3.72665807110660        3.84259081573511       -0.54896614520606

          :  Hamiltonian                  GFN2-xTB          :
         :: gradient norm              0.000442329583 Eh/a0 ::
         :: HOMO-LUMO gap             11.432363992703 eV    ::
         :: SCC energy               -11.255987080241 Eh    ::
         :: -> dispersion             -0.003443762047 Eh    ::
         :: -> Gsolv                  -0.122530156211 Eh    ::
         :: repulsion energy           0.099773217684 Eh    ::

    * Orbital Energies and Occupations

         #    Occupation            Energy/Eh            Energy/eV
      -------------------------------------------------------------
         1        2.0000           -0.5992909             -16.3075
         2        2.0000           -0.5824428             -15.8491
         3        2.0000           -0.5426584             -14.7665
         4        2.0000           -0.4923050             -13.3963
         5        2.0000           -0.4774264             -12.9914
         6        2.0000           -0.4508323             -12.2678
         7        2.0000           -0.4387234             -11.9383
         8        2.0000           -0.4210781             -11.4581
         9        2.0000           -0.3052498              -8.3063
        10        2.0000           -0.3045274              -8.2866 (HOMO)
        11                          0.1156042               3.1458 (LUMO)
        12                          0.1297873               3.5317
        13                          0.1368298               3.7233
        14                          0.1781832               4.8486
        15                          0.2210775               6.0158
        16                          0.2522190               6.8632
        17                          0.3544190               9.6442
      -------------------------------------------------------------
                  HL-Gap            0.4201316 Eh           11.4324 eV

     #   Z          covCN         q      C6AA      α(0)
     1   8 O        0.855    -0.878    34.047     7.823
     2   6 C        3.654     0.194    17.799     6.058
     3   6 C        3.747    -0.107    22.622     6.784
     4   1 H        0.914    -0.132     6.820     4.085
     5   1 H        0.914    -0.132     6.820     4.085
     6   1 H        0.925     0.020     2.736     2.586
     7   1 H        0.925     0.015     2.808     2.620
     8   1 H        0.925     0.020     2.736     2.586

Wiberg/Mayer (AO) data.
largest (>0.10) Wiberg bond orders for each atom

     #   Z sym  total        # sym  WBO       # sym  WBO       # sym  WBO
 ---------------------------------------------------------------------------
     1   8 O    1.316 --     2 C    1.159
     2   6 C    3.976 --     1 O    1.159     3 C    0.968     4 H    0.925
                             5 H    0.925
     3   6 C    3.997 --     7 H    0.991     8 H    0.991     6 H    0.991
                             2 C    0.968
     4   1 H    0.983 --     2 C    0.925
     5   1 H    0.983 --     2 C    0.925
     6   1 H    1.000 --     3 C    0.991
     7   1 H    1.000 --     3 C    0.991
     8   1 H    1.000 --     3 C    0.991
 ---------------------------------------------------------------------------

molecular dipole:
                 x           y           z       tot (Debye)
 q only:        2.278      -7.889       2.166
   full:        2.212      -8.122       2.363      22.224

 projected vibrational frequencies (cm⁻¹)
eigval :       -0.00    -0.00    -0.00     0.00     0.00     0.00
eigval :      223.76   433.74   803.29   890.88  1027.92  1132.36
eigval :     1145.69  1306.07  1346.57  1384.51  1477.84  1503.57
eigval :     1506.58  2119.81  2358.88  2998.75  3017.67  3025.89

   temp. (K)  partition function   enthalpy   heat capacity  entropy
                                   cal/mol     cal/K/mol   cal/K/mol   J/K/mol
 298.15  VIB   1.83                  662.130      5.824      3.420
         ROT  0.152E+05              888.752      2.981     22.120
         INT  0.278E+05             1550.882      8.805     25.540
         TR   0.293E+27             1481.254      4.968     37.325
         TOT                        3032.1362    13.7734    62.8651   263.0274

       T/K    H(0)-H(T)+PV         H(T)/Eh          T*S/Eh         G(T)/Eh
   ------------------------------------------------------------------------
    298.15    0.483202E-02    0.679458E-01    0.298692E-01    0.380766E-01
   ------------------------------------------------------------------------

         :::::::::::::::::::::::::::::::::::::::::::::::::::::
         ::                  THERMODYNAMIC                  ::
         :::::::::::::::::::::::::::::::::::::::::::::::::::::
         :: total free energy         -11.118137233130 Eh   ::
         ::.................................................::
         :: total energy              -11.156213862460 Eh   ::
         :: zero point energy           0.063113832099 Eh   ::
         :: G(RRHO) w/o ZPVE           -0.025037202769 Eh   ::
         :: G(RRHO) contrib.            0.038076629330 Eh   ::
         :::::::::::::::::::::::::::::::::::::::::::::::::::::

           -------------------------------------------------
          | TOTAL ENERGY              -11.156213862460 Eh   |
          | TOTAL ENTHALPY            -11.088268013770 Eh   |
          | TOTAL FREE ENERGY         -11.118137233130 Eh   |
          | GRADIENT NORM               0.000442328469 Eh/α |
          | HOMO-LUMO GAP              11.432363695973 eV   |
           -------------------------------------------------

 * finished run on 2025/10/17 at 22:47:53.437
