   * xtb version 6.7.1 (edcfbbe) compiled by 'albert@albert-system' on 2024-07-22

   ID    Z sym.   atoms
    1    6 C      1-5, 7
    2    1 H      6, 8-10, 12
    3   16 S      11

          program call               : xtb xyz.xyz --charge -1 --ohess
          :  Hamiltonian                  GFN2-xTB          :
 * total energy  :   -18.8459655 Eh     change       -0.5296030E-10 Eh
 * total energy  :   -18.8473928 Eh     change       -0.1427256E-02 Eh
 * total energy  :   -18.8476539 Eh     change       -0.2611398E-03 Eh
 * total energy  :   -18.8476734 Eh     change       -0.1949829E-04 Eh
 * total energy  :   -18.8476774 Eh     change       -0.3929692E-05 Eh
   *** GEOMETRY OPTIMIZATION CONVERGED AFTER 5 ITERATIONS ***

 final structure:
================
12
 xtb: 6.7.1 (edcfbbe)
C           -3.23153865800993       -2.27932683611915        0.62856883599907
C           -2.72538110123164       -3.14261523857026       -0.31465680183046
C           -3.40675788988529       -4.30531226221535       -0.65430903706009
C           -4.61312878582842       -4.58204838489847       -0.02217874218134
C           -5.12672722774202       -3.72443377314418        0.92219976540310
H           -1.78105810073727       -2.91416576462388       -0.80128918025288
C           -4.45169187315747       -2.54191982049925        1.27990039095505
H           -3.00479650757616       -4.98364759362371       -1.39835363551153
H           -2.69527586701504       -1.37493298967925        0.88849022287152
H           -6.06745578064711       -3.94626594107316        1.41095883338753
S           -5.08363182016630       -1.47548094373159        2.44964369044340
H           -5.15615038800334       -5.48771945182175       -0.27836934222337

          :  Hamiltonian                  GFN2-xTB          :
         :: gradient norm              0.000367558679 Eh/a0 ::
         :: HOMO-LUMO gap              2.153734091528 eV    ::
         :: SCC energy               -19.152087383430 Eh    ::
         :: -> dispersion             -0.011145593210 Eh    ::
         :: repulsion energy           0.304410030282 Eh    ::

    * Orbital Energies and Occupations

         #    Occupation            Energy/Eh            Energy/eV
      -------------------------------------------------------------
         1        2.0000           -0.4802806             -13.0691
       ...           ...                  ...                  ...
         6        2.0000           -0.4014951             -10.9252
         7        2.0000           -0.3700332             -10.0691
         8        2.0000           -0.3364023              -9.1540
         9        2.0000           -0.3247746              -8.8376
        10        2.0000           -0.3205747              -8.7233
        11        2.0000           -0.3106470              -8.4531
        12        2.0000           -0.3013264              -8.1995
        13        2.0000           -0.2624058              -7.1404
        14        2.0000           -0.2443659              -6.6495
        15        2.0000           -0.2421330              -6.5888
        16        2.0000           -0.2411975              -6.5633
        17        2.0000           -0.1479688              -4.0264
        18        2.0000           -0.1366434              -3.7183 (HOMO)
        19                         -0.0574950              -1.5645 (LUMO)
        20                         -0.0506105              -1.3772
        21                          0.0553364               1.5058
        22                          0.0656893               1.7875
        23                          0.2096586               5.7051
        24                          0.2176731               5.9232
        25                          0.2187920               5.9536
        26                          0.2624223               7.1409
        27                          0.2693313               7.3289
        28                          0.2883219               7.8456
        29                          0.3151670               8.5761
       ...                                ...                  ...
        38                          0.8349850              22.7211
      -------------------------------------------------------------
                  HL-Gap            0.0791484 Eh            2.1537 eV

     #   Z          covCN         q      C6AA      α(0)
     1   6 C        2.970    -0.058    29.430     8.899
     2   6 C        2.916    -0.046    29.153     8.854
     3   6 C        2.917    -0.070    29.745     8.944
     4   6 C        2.916    -0.046    29.153     8.854
     5   6 C        2.970    -0.058    29.430     8.899
     6   1 H        0.925    -0.026     3.555     2.949
     7   6 C        2.958     0.094    25.919     8.350
     8   1 H        0.925    -0.031     3.650     2.987
     9   1 H        0.925    -0.003     3.109     2.757
    10   1 H        0.925    -0.003     3.109     2.757
    11  16 S        1.079    -0.726   173.060    22.248
    12   1 H        0.925    -0.026     3.555     2.949

Wiberg/Mayer (AO) data.
largest (>0.10) Wiberg bond orders for each atom

     #   Z sym  total        # sym  WBO       # sym  WBO       # sym  WBO
 ---------------------------------------------------------------------------
     1   6 C    3.987 --     2 C    1.491     7 C    1.308     9 H    0.972
     2   6 C    3.989 --     1 C    1.491     3 C    1.397     6 H    0.970
     3   6 C    3.979 --     2 C    1.397     4 C    1.397     8 H    0.972
     4   6 C    3.989 --     5 C    1.491     3 C    1.397    12 H    0.970
     5   6 C    3.987 --     4 C    1.491     7 C    1.308    10 H    0.972
     6   1 H    0.999 --     2 C    0.970
     7   6 C    3.978 --     1 C    1.308     5 C    1.308    11 S    1.259
     8   1 H    0.999 --     3 C    0.972
     9   1 H    1.000 --     1 C    0.972
    10   1 H    1.000 --     5 C    0.972
    11  16 S    1.545 --     7 C    1.259
    12   1 H    0.999 --     4 C    0.970
 ---------------------------------------------------------------------------

molecular dipole:
                 x           y           z       tot (Debye)
 q only:        8.763       4.212      -3.067
   full:        8.974       3.856      -3.457      26.335

 projected vibrational frequencies (cm⁻¹)
eigval :       -0.00    -0.00     0.00     0.00     0.00     0.00
eigval :      161.36   275.26   370.34   415.27   430.69   584.51
eigval :      634.25   716.22   725.16   827.74   852.89   908.92
eigval :      909.99   964.33  1075.05  1109.57  1126.85  1179.83
eigval :     1204.25  1275.14  1337.33  1440.35  1449.81  1534.29
eigval :     1595.35  2985.39  2985.56  3020.27  3043.77  3049.59

   temp. (K)  partition function   enthalpy   heat capacity  entropy
                                   cal/mol     cal/K/mol   cal/K/mol   J/K/mol
 298.15  VIB   5.22                 1846.713     15.991      9.479
         ROT  0.125E+06              888.752      2.981     26.298
         INT  0.651E+06             2735.465     18.972     35.777
         TR   0.110E+28             1481.254      4.968     39.961
         TOT                        4216.7190    23.9399    75.7383   316.8890

       T/K    H(0)-H(T)+PV         H(T)/Eh          T*S/Eh         G(T)/Eh
   ------------------------------------------------------------------------
    298.15    0.671977E-02    0.937214E-01    0.359857E-01    0.577357E-01
   ------------------------------------------------------------------------

         :::::::::::::::::::::::::::::::::::::::::::::::::::::
         ::                  THERMODYNAMIC                  ::
         :::::::::::::::::::::::::::::::::::::::::::::::::::::
         :: total free energy         -18.789941632670 Eh   ::
         ::.................................................::
         :: total energy              -18.847677353148 Eh   ::
         :: zero point energy           0.087001657268 Eh   ::
         :: G(RRHO) w/o ZPVE           -0.029265936790 Eh   ::
         :: G(RRHO) contrib.            0.057735720478 Eh   ::
         :::::::::::::::::::::::::::::::::::::::::::::::::::::

           -------------------------------------------------
          | TOTAL ENERGY              -18.847677353148 Eh   |
          | TOTAL ENTHALPY            -18.753955926474 Eh   |
          | TOTAL FREE ENERGY         -18.789941632670 Eh   |
          | GRADIENT NORM               0.000367622189 Eh/α |
          | HOMO-LUMO GAP               2.153736881243 eV   |
           -------------------------------------------------

 * finished run on 2025/10/18 at 06:41:58.349
