   * xtb version 6.7.1 (edcfbbe) compiled by 'albert@albert-system' on 2024-07-22

   ID    Z sym.   atoms
    1    7 N      1, 3
    2    6 C      2
    3    1 H      4, 6, 7
    4    8 O      5

          program call               : xtb tb_lite_results_shiftn0p25_gp70_b0_rot0_complex.xyz --ohess --chrg -1 --alpb water
      * Solvation model:               ALPB
        Solvent                        water
        Solvent mass                       1.8000E+01 g/mol
          :  Hamiltonian                  GFN2-xTB          :
 * total energy  :   -13.8270556 Eh     change       -0.2145839E-11 Eh
 * total energy  :   -13.8438403 Eh     change       -0.1678470E-01 Eh
 * total energy  :   -13.8448029 Eh     change       -0.9626625E-03 Eh
 * total energy  :   -13.8435037 Eh     change        0.1299188E-02 Eh
 * total energy  :   -13.8457361 Eh     change       -0.2232363E-02 Eh
 * total energy  :   -13.8460390 Eh     change       -0.3029327E-03 Eh
 * total energy  :   -13.8464101 Eh     change       -0.3710766E-03 Eh
 * total energy  :   -13.8465069 Eh     change       -0.9681837E-04 Eh
 * total energy  :   -13.8465814 Eh     change       -0.7445405E-04 Eh
 * total energy  :   -13.8466199 Eh     change       -0.3856074E-04 Eh
 * total energy  :   -13.8471691 Eh     change       -0.2020597E-04 Eh
 * total energy  :   -13.8471090 Eh     change        0.6014938E-04 Eh
 * total energy  :   -13.8472022 Eh     change       -0.9319796E-04 Eh
 * total energy  :   -13.8472147 Eh     change       -0.1251741E-04 Eh
 * total energy  :   -13.8472250 Eh     change       -0.1036754E-04 Eh
 * total energy  :   -13.8472214 Eh     change        0.3640348E-05 Eh
 * total energy  :   -13.8472223 Eh     change       -0.9246214E-06 Eh
 * total energy  :   -13.8472282 Eh     change       -0.5870739E-05 Eh
 * total energy  :   -13.8472292 Eh     change       -0.9965439E-06 Eh
   *** GEOMETRY OPTIMIZATION CONVERGED AFTER 47 ITERATIONS ***

 final structure:
================
7
 xtb: 6.7.1 (edcfbbe)
N           -8.86502965626886       -2.47627660250462       -1.57298060916071
C           -7.70375311194962       -2.43013263159077       -1.76348288521935
N           -6.50847320509191       -2.27024634448021       -2.12135883429303
H           -5.81580805537194       -2.59817817596162       -1.46207757044695
O          -10.55185366892057       -4.54984387446417       -1.76608686321361
H           -9.88582888025439       -3.81379164920150       -1.71419968172512
H          -11.40111941607842       -4.11966320713869       -1.62151561619541

          :  Hamiltonian                  GFN2-xTB          :
         :: gradient norm              0.000250104615 Eh/a0 ::
         :: HOMO-LUMO gap              5.311907327148 eV    ::
         :: SCC energy               -14.022150379556 Eh    ::
         :: -> dispersion             -0.002545185323 Eh    ::
         :: -> Gsolv                  -0.116905002920 Eh    ::
         :: repulsion energy           0.174921185825 Eh    ::

    * Orbital Energies and Occupations

         #    Occupation            Energy/Eh            Energy/eV
      -------------------------------------------------------------
         1        2.0000           -0.6481833             -17.6380
         2        2.0000           -0.5727642             -15.5857
         3        2.0000           -0.5523513             -15.0302
         4        2.0000           -0.5247427             -14.2790
         5        2.0000           -0.4852767             -13.2051
         6        2.0000           -0.4793724             -13.0444
         7        2.0000           -0.4200395             -11.4299
         8        2.0000           -0.4191695             -11.4062
         9        2.0000           -0.4129448             -11.2368
        10        2.0000           -0.3659504              -9.9580
        11        2.0000           -0.3351039              -9.1186
        12        2.0000           -0.3094145              -8.4196 (HOMO)
        13                         -0.1142056              -3.1077 (LUMO)
        14                         -0.0832399              -2.2651
        15                          0.1383339               3.7643
        16                          0.1825344               4.9670
        17                          0.2950367               8.0284
        18                          0.3964502              10.7880
        19                          1.2283578              33.4253
      -------------------------------------------------------------
                  HL-Gap            0.1952090 Eh            5.3119 eV

     #   Z          covCN         q      C6AA      α(0)
     1   7 N        0.918    -0.636    37.772     8.884
     2   6 C        1.821     0.151    27.514     8.475
     3   7 N        1.772    -0.559    36.271     8.918
     4   1 H        0.860     0.109     1.715     2.051
     5   8 O        1.605    -0.707    27.889     7.127
     6   1 H        0.807     0.296     0.732     1.344
     7   1 H        0.805     0.346     0.598     1.215

Wiberg/Mayer (AO) data.
largest (>0.10) Wiberg bond orders for each atom

     #   Z sym  total        # sym  WBO       # sym  WBO       # sym  WBO
 ---------------------------------------------------------------------------
     1   7 N    2.832 --     2 C    2.327     3 N    0.352
     2   6 C    3.949 --     1 N    2.327     3 N    1.594
     3   7 N    2.892 --     2 C    1.594     4 H    0.934     1 N    0.352
     4   1 H    0.988 --     3 N    0.934
     5   8 O    1.751 --     7 H    0.880     6 H    0.823
     6   1 H    0.912 --     5 O    0.823
     7   1 H    0.881 --     5 O    0.880
 ---------------------------------------------------------------------------

molecular dipole:
                 x           y           z       tot (Debye)
 q only:       15.249       5.397       3.667
   full:       15.582       5.486       3.900      43.143

 projected vibrational frequencies (cm⁻¹)
eigval :       -0.00    -0.00    -0.00     0.00     0.00     0.00
eigval :       52.60    92.86   111.82   228.14   441.79   468.13
eigval :      511.65   741.66  1033.88  1311.40  1513.97  2334.79
eigval :     2868.16  3386.88  3606.44

   temp. (K)  partition function   enthalpy   heat capacity  entropy
                                   cal/mol     cal/K/mol   cal/K/mol   J/K/mol
 298.15  VIB   63.8                 2314.347     12.349     15.398
         ROT  0.540E+05              888.752      2.981     24.634
         INT  0.344E+07             3203.099     15.330     40.032
         TR   0.439E+27             1481.254      4.968     38.130
         TOT                        4684.3528    20.2980    78.1625   327.0320

       T/K    H(0)-H(T)+PV         H(T)/Eh          T*S/Eh         G(T)/Eh
   ------------------------------------------------------------------------
    298.15    0.746499E-02    0.500762E-01    0.371375E-01    0.129387E-01
   ------------------------------------------------------------------------

         :::::::::::::::::::::::::::::::::::::::::::::::::::::
         ::                  THERMODYNAMIC                  ::
         :::::::::::::::::::::::::::::::::::::::::::::::::::::
         :: total free energy         -13.834290516542 Eh   ::
         ::.................................................::
         :: total energy              -13.847229191512 Eh   ::
         :: zero point energy           0.042611215980 Eh   ::
         :: G(RRHO) w/o ZPVE           -0.029672541010 Eh   ::
         :: G(RRHO) contrib.            0.012938674969 Eh   ::
         :::::::::::::::::::::::::::::::::::::::::::::::::::::

           -------------------------------------------------
          | TOTAL ENERGY              -13.847229191512 Eh   |
          | TOTAL ENTHALPY            -13.797152984216 Eh   |
          | TOTAL FREE ENERGY         -13.834290516542 Eh   |
          | GRADIENT NORM               0.000250159024 Eh/α |
          | HOMO-LUMO GAP               5.311906644129 eV   |
           -------------------------------------------------

 * finished run on 2025/10/17 at 21:49:50.256
normal termination of xtb
