   * xtb version 6.7.1 (edcfbbe) compiled by 'albert@albert-system' on 2024-07-22

   ID    Z sym.   atoms
    1    7 N      1, 3
    2    6 C      2
    3    1 H      4, 6, 7
    4    8 O      5

          program call               : xtb tb_lite_results_shiftn0p25_gp61_b0_rot270_complex.xyz --ohess --chrg -1 --alpb water
      * Solvation model:               ALPB
        Solvent                        water
        Solvent mass                       1.8000E+01 g/mol
          :  Hamiltonian                  GFN2-xTB          :
 * total energy  :   -13.8275726 Eh     change       -0.9396928E-12 Eh
 * total energy  :   -13.8445054 Eh     change       -0.1693278E-01 Eh
 * total energy  :   -13.8453376 Eh     change       -0.8322541E-03 Eh
 * total energy  :   -13.8452720 Eh     change        0.6559300E-04 Eh
 * total energy  :   -13.8462754 Eh     change       -0.1003369E-02 Eh
 * total energy  :   -13.8465832 Eh     change       -0.3077904E-03 Eh
 * total energy  :   -13.8469215 Eh     change       -0.3383138E-03 Eh
 * total energy  :   -13.8469935 Eh     change       -0.7201652E-04 Eh
 * total energy  :   -13.8470465 Eh     change       -0.5300546E-04 Eh
 * total energy  :   -13.8470735 Eh     change       -0.2697115E-04 Eh
 * total energy  :   -13.8471118 Eh     change       -0.9073106E-05 Eh
 * total energy  :   -13.8471280 Eh     change       -0.1614169E-04 Eh
 * total energy  :   -13.8471481 Eh     change       -0.2006513E-04 Eh
 * total energy  :   -13.8471698 Eh     change       -0.2169897E-04 Eh
 * total energy  :   -13.8471868 Eh     change       -0.1703597E-04 Eh
 * total energy  :   -13.8471962 Eh     change       -0.9421489E-05 Eh
 * total energy  :   -13.8472006 Eh     change       -0.4348927E-05 Eh
 * total energy  :   -13.8472028 Eh     change       -0.2232237E-05 Eh
 * total energy  :   -13.8472060 Eh     change       -0.3204093E-05 Eh
   *** GEOMETRY OPTIMIZATION CONVERGED AFTER 22 ITERATIONS ***

 final structure:
================
7
 xtb: 6.7.1 (edcfbbe)
N           -8.55884039086241       -3.24434745188066       -2.11656854388597
C           -7.61663893299007       -2.60780857024546       -1.81180017159355
N           -6.70223179769266       -1.78010403810259       -1.56471639143956
H           -5.83317666718228       -2.18316759200216       -1.24133260749934
O          -10.60588044808304       -4.28024309194160       -0.73254244190654
H           -9.82372513895009       -3.87720984162267       -1.19406177188595
H          -11.16970776152897       -4.60108794704361       -1.44410970179185

          :  Hamiltonian                  GFN2-xTB          :
         :: gradient norm              0.000790633308 Eh/a0 ::
         :: HOMO-LUMO gap              5.320328335531 eV    ::
         :: SCC energy               -14.022443705028 Eh    ::
         :: -> dispersion             -0.002530499014 Eh    ::
         :: -> Gsolv                  -0.116730629501 Eh    ::
         :: repulsion energy           0.175237707955 Eh    ::

    * Orbital Energies and Occupations

         #    Occupation            Energy/Eh            Energy/eV
      -------------------------------------------------------------
         1        2.0000           -0.6475001             -17.6194
         2        2.0000           -0.5726624             -15.5829
         3        2.0000           -0.5522122             -15.0265
         4        2.0000           -0.5240329             -14.2597
         5        2.0000           -0.4849821             -13.1970
         6        2.0000           -0.4789107             -13.0318
         7        2.0000           -0.4199733             -11.4281
         8        2.0000           -0.4190318             -11.4024
         9        2.0000           -0.4122921             -11.2190
        10        2.0000           -0.3660075              -9.9596
        11        2.0000           -0.3349579              -9.1147
        12        2.0000           -0.3092271              -8.4145 (HOMO)
        13                         -0.1137087              -3.0942 (LUMO)
        14                         -0.0828412              -2.2542
        15                          0.1378771               3.7518
        16                          0.1829210               4.9775
        17                          0.2950074               8.0276
        18                          0.3982807              10.8378
        19                          1.2327291              33.5443
      -------------------------------------------------------------
                  HL-Gap            0.1955185 Eh            5.3203 eV

     #   Z          covCN         q      C6AA      α(0)
     1   7 N        0.918    -0.636    37.766     8.883
     2   6 C        1.821     0.151    27.514     8.475
     3   7 N        1.772    -0.559    36.289     8.920
     4   1 H        0.860     0.109     1.719     2.054
     5   8 O        1.606    -0.707    27.893     7.128
     6   1 H        0.807     0.298     0.728     1.340
     7   1 H        0.805     0.345     0.600     1.217

Wiberg/Mayer (AO) data.
largest (>0.10) Wiberg bond orders for each atom

     #   Z sym  total        # sym  WBO       # sym  WBO       # sym  WBO
 ---------------------------------------------------------------------------
     1   7 N    2.834 --     2 C    2.330     3 N    0.352
     2   6 C    3.949 --     1 N    2.330     3 N    1.593
     3   7 N    2.891 --     2 C    1.593     4 H    0.934     1 N    0.352
     4   1 H    0.988 --     3 N    0.934
     5   8 O    1.751 --     7 H    0.881     6 H    0.823
     6   1 H    0.911 --     5 O    0.823
     7   1 H    0.881 --     5 O    0.881
 ---------------------------------------------------------------------------

molecular dipole:
                 x           y           z       tot (Debye)
 q only:       15.360       5.126       2.792
   full:       15.794       5.074       2.741      42.737

 projected vibrational frequencies (cm⁻¹)
eigval :       -0.00    -0.00    -0.00     0.00     0.00     0.00
eigval :       37.59    78.02   111.11   224.85   444.58   464.30
eigval :      507.29   745.17  1034.32  1312.62  1513.84  2339.39
eigval :     2879.40  3384.66  3607.99

   temp. (K)  partition function   enthalpy   heat capacity  entropy
                                   cal/mol     cal/K/mol   cal/K/mol   J/K/mol
 298.15  VIB   101.                 2358.021     12.000     15.752
         ROT  0.519E+05              888.752      2.981     24.556
         INT  0.522E+07             3246.773     14.981     40.308
         TR   0.439E+27             1481.254      4.968     38.130
         TOT                        4728.0272    19.9495    78.4386   328.1870

       T/K    H(0)-H(T)+PV         H(T)/Eh          T*S/Eh         G(T)/Eh
   ------------------------------------------------------------------------
    298.15    0.753459E-02    0.501025E-01    0.372687E-01    0.128338E-01
   ------------------------------------------------------------------------

         :::::::::::::::::::::::::::::::::::::::::::::::::::::
         ::                  THERMODYNAMIC                  ::
         :::::::::::::::::::::::::::::::::::::::::::::::::::::
         :: total free energy         -13.834372212504 Eh   ::
         ::.................................................::
         :: total energy              -13.847205997009 Eh   ::
         :: zero point energy           0.042567888547 Eh   ::
         :: G(RRHO) w/o ZPVE           -0.029734104042 Eh   ::
         :: G(RRHO) contrib.            0.012833784505 Eh   ::
         :::::::::::::::::::::::::::::::::::::::::::::::::::::

           -------------------------------------------------
          | TOTAL ENERGY              -13.847205997009 Eh   |
          | TOTAL ENTHALPY            -13.797103517474 Eh   |
          | TOTAL FREE ENERGY         -13.834372212504 Eh   |
          | GRADIENT NORM               0.000790595993 Eh/α |
          | HOMO-LUMO GAP               5.320327984469 eV   |
           -------------------------------------------------

 * finished run on 2025/10/17 at 21:49:52.271
normal termination of xtb
