   * xtb version 6.7.1 (edcfbbe) compiled by 'albert@albert-system' on 2024-07-22

   ID    Z sym.   atoms
    1    7 N      1, 3
    2    6 C      2
    3    1 H      4, 6, 7
    4    8 O      5

          program call               : xtb tb_lite_results_shiftn0p25_gp70_b0_rot270_complex.xyz --ohess --chrg -1 --alpb water
      * Solvation model:               ALPB
        Solvent                        water
        Solvent mass                       1.8000E+01 g/mol
          :  Hamiltonian                  GFN2-xTB          :
 * total energy  :   -13.8272406 Eh     change       -0.1612932E-11 Eh
 * total energy  :   -13.8441837 Eh     change       -0.1694306E-01 Eh
 * total energy  :   -13.8447168 Eh     change       -0.5331247E-03 Eh
 * total energy  :   -13.8451728 Eh     change       -0.4559608E-03 Eh
 * total energy  :   -13.8459536 Eh     change       -0.7808447E-03 Eh
 * total energy  :   -13.8462797 Eh     change       -0.3261030E-03 Eh
 * total energy  :   -13.8465459 Eh     change       -0.2662105E-03 Eh
 * total energy  :   -13.8466438 Eh     change       -0.9784533E-04 Eh
 * total energy  :   -13.8466967 Eh     change       -0.5295953E-04 Eh
 * total energy  :   -13.8467197 Eh     change       -0.2294003E-04 Eh
 * total energy  :   -13.8470805 Eh     change       -0.2593559E-04 Eh
 * total energy  :   -13.8471226 Eh     change       -0.4212772E-04 Eh
 * total energy  :   -13.8471522 Eh     change       -0.2955900E-04 Eh
 * total energy  :   -13.8471437 Eh     change        0.8446995E-05 Eh
 * total energy  :   -13.8471737 Eh     change       -0.2990957E-04 Eh
 * total energy  :   -13.8471821 Eh     change       -0.8437197E-05 Eh
 * total energy  :   -13.8471943 Eh     change       -0.1224721E-04 Eh
 * total energy  :   -13.8471982 Eh     change       -0.3830300E-05 Eh
 * total energy  :   -13.8472023 Eh     change       -0.4096750E-05 Eh
   *** GEOMETRY OPTIMIZATION CONVERGED AFTER 41 ITERATIONS ***

 final structure:
================
7
 xtb: 6.7.1 (edcfbbe)
N           -8.45517023919039       -3.15117764994426       -2.55244316772825
C           -7.61210607361500       -2.59484970087756       -1.94701749425394
N           -6.79553411767032       -1.83550919092016       -1.36550255558742
H           -5.99877238921979       -2.29860321180314       -0.95022393741329
O          -10.60135680344070       -4.49056949034944       -1.67792624928961
H           -9.79244465026128       -3.97871696394417       -1.94907684712124
H          -11.03303362866223       -4.72275959159162       -2.50651181337292

          :  Hamiltonian                  GFN2-xTB          :
         :: gradient norm              0.000677748362 Eh/a0 ::
         :: HOMO-LUMO gap              5.318306892388 eV    ::
         :: SCC energy               -14.022212940977 Eh    ::
         :: -> dispersion             -0.002545590256 Eh    ::
         :: -> Gsolv                  -0.116839317747 Eh    ::
         :: repulsion energy           0.175010678991 Eh    ::

    * Orbital Energies and Occupations

         #    Occupation            Energy/Eh            Energy/eV
      -------------------------------------------------------------
         1        2.0000           -0.6478732             -17.6295
         2        2.0000           -0.5728750             -15.5887
         3        2.0000           -0.5524377             -15.0326
         4        2.0000           -0.5245472             -14.2737
         5        2.0000           -0.4852457             -13.2042
         6        2.0000           -0.4791367             -13.0380
         7        2.0000           -0.4201677             -11.4333
         8        2.0000           -0.4192064             -11.4072
         9        2.0000           -0.4126202             -11.2280
        10        2.0000           -0.3659511              -9.9580
        11        2.0000           -0.3351614              -9.1202
        12        2.0000           -0.3095094              -8.4222 (HOMO)
        13                         -0.1140653              -3.1039 (LUMO)
        14                         -0.0833750              -2.2687
        15                          0.1382182               3.7611
        16                          0.1826488               4.9701
        17                          0.2954863               8.0406
        18                          0.3971487              10.8070
        19                          1.2292867              33.4506
      -------------------------------------------------------------
                  HL-Gap            0.1954441 Eh            5.3183 eV

     #   Z          covCN         q      C6AA      α(0)
     1   7 N        0.919    -0.636    37.755     8.881
     2   6 C        1.821     0.151    27.512     8.475
     3   7 N        1.772    -0.558    36.259     8.917
     4   1 H        0.860     0.109     1.713     2.050
     5   8 O        1.605    -0.707    27.904     7.129
     6   1 H        0.807     0.296     0.733     1.344
     7   1 H        0.805     0.345     0.599     1.216

Wiberg/Mayer (AO) data.
largest (>0.10) Wiberg bond orders for each atom

     #   Z sym  total        # sym  WBO       # sym  WBO       # sym  WBO
 ---------------------------------------------------------------------------
     1   7 N    2.833 --     2 C    2.326     3 N    0.352
     2   6 C    3.949 --     1 N    2.326     3 N    1.595
     3   7 N    2.893 --     2 C    1.595     4 H    0.934     1 N    0.352
     4   1 H    0.988 --     3 N    0.934
     5   8 O    1.751 --     7 H    0.880     6 H    0.821
     6   1 H    0.912 --     5 O    0.821
     7   1 H    0.881 --     5 O    0.880
 ---------------------------------------------------------------------------

molecular dipole:
                 x           y           z       tot (Debye)
 q only:       15.413       5.203       3.274
   full:       15.838       5.155       3.298      43.157

 projected vibrational frequencies (cm⁻¹)
eigval :       -0.00    -0.00    -0.00    -0.00     0.00     0.00
eigval :       43.81   108.88   118.69   229.86   445.60   454.93
eigval :      508.97   750.41  1034.07  1312.67  1508.90  2335.86
eigval :     2852.89  3388.95  3606.79

   temp. (K)  partition function   enthalpy   heat capacity  entropy
                                   cal/mol     cal/K/mol   cal/K/mol   J/K/mol
 298.15  VIB   63.5                 2301.179     12.206     15.047
         ROT  0.538E+05              888.752      2.981     24.629
         INT  0.342E+07             3189.931     15.187     39.675
         TR   0.439E+27             1481.254      4.968     38.130
         TOT                        4671.1854    20.1551    77.8057   325.5389

       T/K    H(0)-H(T)+PV         H(T)/Eh          T*S/Eh         G(T)/Eh
   ------------------------------------------------------------------------
    298.15    0.744401E-02    0.500487E-01    0.369680E-01    0.130807E-01
   ------------------------------------------------------------------------

         :::::::::::::::::::::::::::::::::::::::::::::::::::::
         ::                  THERMODYNAMIC                  ::
         :::::::::::::::::::::::::::::::::::::::::::::::::::::
         :: total free energy         -13.834121555773 Eh   ::
         ::.................................................::
         :: total energy              -13.847202259942 Eh   ::
         :: zero point energy           0.042604673974 Eh   ::
         :: G(RRHO) w/o ZPVE           -0.029523969805 Eh   ::
         :: G(RRHO) contrib.            0.013080704169 Eh   ::
         :::::::::::::::::::::::::::::::::::::::::::::::::::::

           -------------------------------------------------
          | TOTAL ENERGY              -13.847202259942 Eh   |
          | TOTAL ENTHALPY            -13.797153578194 Eh   |
          | TOTAL FREE ENERGY         -13.834121555773 Eh   |
          | GRADIENT NORM               0.000677900337 Eh/α |
          | HOMO-LUMO GAP               5.318305367513 eV   |
           -------------------------------------------------

 * finished run on 2025/10/17 at 21:49:51.394
normal termination of xtb
