   * xtb version 6.7.1 (edcfbbe) compiled by 'albert@albert-system' on 2024-07-22

   ID    Z sym.   atoms
    1    7 N      1, 3
    2    6 C      2
    3    1 H      4, 6, 7
    4    8 O      5

          program call               : xtb tb_lite_results_shiftn0p2_gp33_b0_rot0_complex.xyz --ohess --chrg -1 --alpb water
      * Solvation model:               ALPB
        Solvent                        water
        Solvent mass                       1.8000E+01 g/mol
          :  Hamiltonian                  GFN2-xTB          :
 * total energy  :   -13.8278393 Eh     change       -0.5115908E-12 Eh
 * total energy  :   -13.8445567 Eh     change       -0.1671741E-01 Eh
 * total energy  :   -13.8451978 Eh     change       -0.6411054E-03 Eh
 * total energy  :   -13.8452104 Eh     change       -0.1260054E-04 Eh
 * total energy  :   -13.8461089 Eh     change       -0.8984691E-03 Eh
 * total energy  :   -13.8464247 Eh     change       -0.3157867E-03 Eh
 * total energy  :   -13.8467478 Eh     change       -0.3230823E-03 Eh
 * total energy  :   -13.8468211 Eh     change       -0.7330353E-04 Eh
 * total energy  :   -13.8468675 Eh     change       -0.4644427E-04 Eh
 * total energy  :   -13.8468842 Eh     change       -0.1667437E-04 Eh
 * total energy  :   -13.8471053 Eh     change       -0.3020946E-04 Eh
 * total energy  :   -13.8471323 Eh     change       -0.2696335E-04 Eh
 * total energy  :   -13.8471677 Eh     change       -0.3542036E-04 Eh
 * total energy  :   -13.8471422 Eh     change        0.2554421E-04 Eh
 * total energy  :   -13.8472102 Eh     change       -0.6802106E-04 Eh
 * total energy  :   -13.8472226 Eh     change       -0.1235714E-04 Eh
 * total energy  :   -13.8472343 Eh     change       -0.1178536E-04 Eh
 * total energy  :   -13.8472406 Eh     change       -0.6215447E-05 Eh
 * total energy  :   -13.8472450 Eh     change       -0.4404937E-05 Eh
   *** GEOMETRY OPTIMIZATION CONVERGED AFTER 34 ITERATIONS ***

 final structure:
================
7
 xtb: 6.7.1 (edcfbbe)
N           -8.83531352447584       -2.81785722455390       -1.68796653908000
C           -7.69012501985059       -2.55299999566080       -1.75665310568947
N           -6.52017942017000       -2.14073714051388       -1.96520410857209
H           -5.82553682218055       -2.47714225850910       -1.31260505960672
O          -10.15866067390454       -5.03141865793743       -2.41242103406943
H           -9.61775054908274       -4.23643977389950       -2.15860180932433
H          -11.07293725218887       -4.73491011774540       -2.35104211402057

          :  Hamiltonian                  GFN2-xTB          :
         :: gradient norm              0.000707989343 Eh/a0 ::
         :: HOMO-LUMO gap              5.314803827238 eV    ::
         :: SCC energy               -14.022280703120 Eh    ::
         :: -> dispersion             -0.002542114317 Eh    ::
         :: -> Gsolv                  -0.116824509415 Eh    ::
         :: repulsion energy           0.175035745687 Eh    ::

    * Orbital Energies and Occupations

         #    Occupation            Energy/Eh            Energy/eV
      -------------------------------------------------------------
         1        2.0000           -0.6479032             -17.6303
         2        2.0000           -0.5728486             -15.5880
         3        2.0000           -0.5524163             -15.0320
         4        2.0000           -0.5246121             -14.2754
         5        2.0000           -0.4852155             -13.2034
         6        2.0000           -0.4791316             -13.0378
         7        2.0000           -0.4201005             -11.4315
         8        2.0000           -0.4192700             -11.4089
         9        2.0000           -0.4127034             -11.2302
        10        2.0000           -0.3659351              -9.9576
        11        2.0000           -0.3351923              -9.1210
        12        2.0000           -0.3094326              -8.4201 (HOMO)
        13                         -0.1141172              -3.1053 (LUMO)
        14                         -0.0831442              -2.2625
        15                          0.1378181               3.7502
        16                          0.1830324               4.9806
        17                          0.2946408               8.0176
        18                          0.3969400              10.8013
        19                          1.2299031              33.4674
      -------------------------------------------------------------
                  HL-Gap            0.1953154 Eh            5.3148 eV

     #   Z          covCN         q      C6AA      α(0)
     1   7 N        0.918    -0.636    37.761     8.882
     2   6 C        1.821     0.151    27.511     8.475
     3   7 N        1.772    -0.559    36.277     8.919
     4   1 H        0.860     0.109     1.715     2.051
     5   8 O        1.605    -0.707    27.893     7.128
     6   1 H        0.807     0.296     0.731     1.343
     7   1 H        0.805     0.345     0.599     1.216

Wiberg/Mayer (AO) data.
largest (>0.10) Wiberg bond orders for each atom

     #   Z sym  total        # sym  WBO       # sym  WBO       # sym  WBO
 ---------------------------------------------------------------------------
     1   7 N    2.833 --     2 C    2.328     3 N    0.352
     2   6 C    3.949 --     1 N    2.328     3 N    1.594
     3   7 N    2.891 --     2 C    1.594     4 H    0.934     1 N    0.352
     4   1 H    0.988 --     3 N    0.934
     5   8 O    1.751 --     7 H    0.880     6 H    0.822
     6   1 H    0.912 --     5 O    0.822
     7   1 H    0.881 --     5 O    0.880
 ---------------------------------------------------------------------------

molecular dipole:
                 x           y           z       tot (Debye)
 q only:       15.068       5.666       3.812
   full:       15.367       5.764       4.077      42.985

 projected vibrational frequencies (cm⁻¹)
eigval :       -0.00    -0.00    -0.00    -0.00     0.00     0.00
eigval :       46.84   119.64   182.43   229.88   446.38   457.46
eigval :      508.53   760.41  1035.56  1312.28  1513.07  2337.37
eigval :     2862.95  3389.47  3600.47

   temp. (K)  partition function   enthalpy   heat capacity  entropy
                                   cal/mol     cal/K/mol   cal/K/mol   J/K/mol
 298.15  VIB   41.4                 2211.286     12.200     14.044
         ROT  0.535E+05              888.752      2.981     24.615
         INT  0.221E+07             3100.039     15.181     38.660
         TR   0.439E+27             1481.254      4.968     38.130
         TOT                        4581.2926    20.1488    76.7901   321.2898

       T/K    H(0)-H(T)+PV         H(T)/Eh          T*S/Eh         G(T)/Eh
   ------------------------------------------------------------------------
    298.15    0.730075E-02    0.501366E-01    0.364855E-01    0.136512E-01
   ------------------------------------------------------------------------

         :::::::::::::::::::::::::::::::::::::::::::::::::::::
         ::                  THERMODYNAMIC                  ::
         :::::::::::::::::::::::::::::::::::::::::::::::::::::
         :: total free energy         -13.833593800926 Eh   ::
         ::.................................................::
         :: total energy              -13.847244957093 Eh   ::
         :: zero point energy           0.042835854864 Eh   ::
         :: G(RRHO) w/o ZPVE           -0.029184698698 Eh   ::
         :: G(RRHO) contrib.            0.013651156167 Eh   ::
         :::::::::::::::::::::::::::::::::::::::::::::::::::::

           -------------------------------------------------
          | TOTAL ENERGY              -13.847244957093 Eh   |
          | TOTAL ENTHALPY            -13.797108347678 Eh   |
          | TOTAL FREE ENERGY         -13.833593800926 Eh   |
          | GRADIENT NORM               0.000707904165 Eh/α |
          | HOMO-LUMO GAP               5.314802226396 eV   |
           -------------------------------------------------

 * finished run on 2025/10/17 at 21:49:53.082
normal termination of xtb
