   * xtb version 6.7.1 (edcfbbe) compiled by 'albert@albert-system' on 2024-07-22

   ID    Z sym.   atoms
    1    7 N      1, 3
    2    6 C      2
    3    1 H      4

          program call               : xtb tb_lite_results_shiftn0p2_gp33_b0_rot0_solute.xyz --ohess --chrg -1
          :  Hamiltonian                  GFN2-xTB          :
 * total energy  :    -8.6184188 Eh     change       -0.6512124E-11 Eh
 * total energy  :    -8.6376093 Eh     change       -0.1919054E-01 Eh
 * total energy  :    -8.6381098 Eh     change       -0.5004981E-03 Eh
 * total energy  :    -8.6385420 Eh     change       -0.4321766E-03 Eh
 * total energy  :    -8.6388357 Eh     change       -0.2936854E-03 Eh
 * total energy  :    -8.6390669 Eh     change       -0.2312338E-03 Eh
 * total energy  :    -8.6391348 Eh     change       -0.6789283E-04 Eh
 * total energy  :    -8.6391433 Eh     change       -0.8430932E-05 Eh
 * total energy  :    -8.6391473 Eh     change       -0.4041255E-05 Eh
 * total energy  :    -8.6391486 Eh     change       -0.1340093E-05 Eh
   *** GEOMETRY OPTIMIZATION CONVERGED AFTER 10 ITERATIONS ***

 final structure:
================
4
 xtb: 6.7.1 (edcfbbe)
N           -8.59266682951400       -3.29902783965381       -1.81920123119613
C           -7.62879596272650       -2.63033615341050       -1.77158339563687
N           -6.66905392175539       -1.79642366029615       -1.81209595269640
H           -5.83458542824901       -2.09837639542355       -1.31007545367342

          :  Hamiltonian                  GFN2-xTB          :
         :: gradient norm              0.000446429722 Eh/a0 ::
         :: HOMO-LUMO gap              5.234684607448 eV    ::
         :: SCC energy                -8.781304620160 Eh    ::
         :: -> dispersion             -0.001508060245 Eh    ::
         :: repulsion energy           0.142155983708 Eh    ::

    * Orbital Energies and Occupations

         #    Occupation            Energy/Eh            Energy/eV
      -------------------------------------------------------------
         1        2.0000           -0.3546109              -9.6495
         2        2.0000           -0.3344110              -9.0998
         3        2.0000           -0.2729314              -7.4268
         4        2.0000           -0.1990882              -5.4175
         5        2.0000           -0.1988929              -5.4122
         6        2.0000           -0.1436762              -3.9096
         7        2.0000           -0.1169116              -3.1813
         8        2.0000           -0.0889622              -2.4208 (HOMO)
         9                          0.1034089               2.8139 (LUMO)
        10                          0.1398165               3.8046
        11                          0.3766236              10.2484
        12                          0.5737012              15.6112
        13                          1.4299547              38.9110
      -------------------------------------------------------------
                  HL-Gap            0.1923711 Eh            5.2347 eV

     #   Z          covCN         q      C6AA      α(0)
     1   7 N        0.912    -0.615    37.061     8.804
     2   6 C        1.821     0.136    27.856     8.528
     3   7 N        1.771    -0.551    36.015     8.886
     4   1 H        0.860     0.030     2.601     2.527

Wiberg/Mayer (AO) data.
largest (>0.10) Wiberg bond orders for each atom

     #   Z sym  total        # sym  WBO       # sym  WBO       # sym  WBO
 ---------------------------------------------------------------------------
     1   7 N    2.801 --     2 C    2.412     3 N    0.350
     2   6 C    3.948 --     1 N    2.412     3 N    1.525
     3   7 N    2.823 --     2 C    1.525     4 H    0.948     1 N    0.350
     4   1 H    0.999 --     3 N    0.948
 ---------------------------------------------------------------------------

molecular dipole:
                 x           y           z       tot (Debye)
 q only:       14.638       4.909       3.472
   full:       15.069       4.884       3.662      41.326

 projected vibrational frequencies (cm⁻¹)
eigval :       -0.00    -0.00     0.00     0.00     0.00     0.00
eigval :      454.28   498.62  1079.26  1271.26  2367.98  3250.37

   temp. (K)  partition function   enthalpy   heat capacity  entropy
                                   cal/mol     cal/K/mol   cal/K/mol   J/K/mol
 298.15  VIB   1.25                  329.499      3.068      1.544
         ROT  0.301E+04              888.752      2.981     18.899
         INT  0.375E+04             1218.251      6.049     20.443
         TR   0.254E+27             1481.254      4.968     37.046
         TOT                        2699.5051    11.0174    57.4887   240.5326

       T/K    H(0)-H(T)+PV         H(T)/Eh          T*S/Eh         G(T)/Eh
   ------------------------------------------------------------------------
    298.15    0.430194E-02    0.246272E-01    0.273147E-01   -0.268751E-02
   ------------------------------------------------------------------------

         :::::::::::::::::::::::::::::::::::::::::::::::::::::
         ::                  THERMODYNAMIC                  ::
         :::::::::::::::::::::::::::::::::::::::::::::::::::::
         :: total free energy          -8.641836148936 Eh   ::
         ::.................................................::
         :: total energy               -8.639148636452 Eh   ::
         :: zero point energy           0.020325277586 Eh   ::
         :: G(RRHO) w/o ZPVE           -0.023012790070 Eh   ::
         :: G(RRHO) contrib.           -0.002687512483 Eh   ::
         :::::::::::::::::::::::::::::::::::::::::::::::::::::

           -------------------------------------------------
          | TOTAL ENERGY               -8.639148636452 Eh   |
          | TOTAL ENTHALPY             -8.614521423671 Eh   |
          | TOTAL FREE ENERGY          -8.641836148936 Eh   |
          | GRADIENT NORM               0.000446437415 Eh/α |
          | HOMO-LUMO GAP               5.234684562543 eV   |
           -------------------------------------------------

 * finished run on 2025/10/17 at 21:49:53.275
normal termination of xtb
