   * xtb version 6.7.1 (edcfbbe) compiled by 'albert@albert-system' on 2024-07-22

   ID    Z sym.   atoms
    1    7 N      1, 3
    2    6 C      2
    3    1 H      4, 6, 7
    4    8 O      5

          program call               : xtb tb_lite_results_shiftn0p25_gp33_b0_rot0_complex.xyz --ohess --chrg -1 --alpb water
      * Solvation model:               ALPB
        Solvent                        water
        Solvent mass                       1.8000E+01 g/mol
          :  Hamiltonian                  GFN2-xTB          :
 * total energy  :   -13.8273616 Eh     change       -0.6199485E-12 Eh
 * total energy  :   -13.8442436 Eh     change       -0.1688195E-01 Eh
 * total energy  :   -13.8450859 Eh     change       -0.8422777E-03 Eh
 * total energy  :   -13.8450154 Eh     change        0.7048594E-04 Eh
 * total energy  :   -13.8460884 Eh     change       -0.1072981E-02 Eh
 * total energy  :   -13.8464058 Eh     change       -0.3174667E-03 Eh
 * total energy  :   -13.8467303 Eh     change       -0.3244965E-03 Eh
 * total energy  :   -13.8468031 Eh     change       -0.7277536E-04 Eh
 * total energy  :   -13.8468548 Eh     change       -0.5167793E-04 Eh
 * total energy  :   -13.8468780 Eh     change       -0.2324278E-04 Eh
 * total energy  :   -13.8471307 Eh     change       -0.2090240E-04 Eh
 * total energy  :   -13.8471433 Eh     change       -0.1252856E-04 Eh
 * total energy  :   -13.8471694 Eh     change       -0.2608024E-04 Eh
 * total energy  :   -13.8471829 Eh     change       -0.1358134E-04 Eh
 * total energy  :   -13.8472098 Eh     change       -0.2686556E-04 Eh
 * total energy  :   -13.8472305 Eh     change       -0.2071463E-04 Eh
 * total energy  :   -13.8472339 Eh     change       -0.3358948E-05 Eh
 * total energy  :   -13.8472409 Eh     change       -0.7010489E-05 Eh
 * total energy  :   -13.8472420 Eh     change       -0.1115530E-05 Eh
   *** GEOMETRY OPTIMIZATION CONVERGED AFTER 33 ITERATIONS ***

 final structure:
================
7
 xtb: 6.7.1 (edcfbbe)
N           -8.82269814193989       -2.81715632153414       -1.65320048033234
C           -7.68345603998777       -2.53395685355086       -1.74326489397407
N           -6.52573568373897       -2.09949852610411       -1.97270039308320
H           -5.80836703336909       -2.43715858759074       -1.34573847270840
O          -10.13218871331015       -5.02114125923776       -2.43131720940953
H           -9.59707140246262       -4.22960141400373       -2.15769084122590
H          -11.04742308976589       -4.74942904956228       -2.30818788585739

          :  Hamiltonian                  GFN2-xTB          :
         :: gradient norm              0.000861342118 Eh/a0 ::
         :: HOMO-LUMO gap              5.317531734753 eV    ::
         :: SCC energy               -14.022521446979 Eh    ::
         :: -> dispersion             -0.002542943681 Eh    ::
         :: -> Gsolv                  -0.116844487052 Eh    ::
         :: repulsion energy           0.175279447072 Eh    ::

    * Orbital Energies and Occupations

         #    Occupation            Energy/Eh            Energy/eV
      -------------------------------------------------------------
         1        2.0000           -0.6480394             -17.6341
         2        2.0000           -0.5728024             -15.5867
         3        2.0000           -0.5523691             -15.0307
         4        2.0000           -0.5245822             -14.2746
         5        2.0000           -0.4852468             -13.2042
         6        2.0000           -0.4793187             -13.0429
         7        2.0000           -0.4200891             -11.4312
         8        2.0000           -0.4192189             -11.4075
         9        2.0000           -0.4127970             -11.2328
        10        2.0000           -0.3658565              -9.9555
        11        2.0000           -0.3351087              -9.1188
        12        2.0000           -0.3093839              -8.4188 (HOMO)
        13                         -0.1139682              -3.1012 (LUMO)
        14                         -0.0830235              -2.2592
        15                          0.1387238               3.7749
        16                          0.1828041               4.9744
        17                          0.2954143               8.0386
        18                          0.3976685              10.8211
        19                          1.2302987              33.4781
      -------------------------------------------------------------
                  HL-Gap            0.1954157 Eh            5.3175 eV

     #   Z          covCN         q      C6AA      α(0)
     1   7 N        0.918    -0.636    37.772     8.884
     2   6 C        1.821     0.151    27.512     8.475
     3   7 N        1.772    -0.559    36.272     8.918
     4   1 H        0.860     0.109     1.716     2.052
     5   8 O        1.606    -0.707    27.889     7.127
     6   1 H        0.807     0.296     0.732     1.343
     7   1 H        0.805     0.345     0.599     1.216

Wiberg/Mayer (AO) data.
largest (>0.10) Wiberg bond orders for each atom

     #   Z sym  total        # sym  WBO       # sym  WBO       # sym  WBO
 ---------------------------------------------------------------------------
     1   7 N    2.832 --     2 C    2.327     3 N    0.352
     2   6 C    3.949 --     1 N    2.327     3 N    1.594
     3   7 N    2.892 --     2 C    1.594     4 H    0.934     1 N    0.352
     4   1 H    0.988 --     3 N    0.934
     5   8 O    1.751 --     7 H    0.880     6 H    0.823
     6   1 H    0.912 --     5 O    0.823
     7   1 H    0.881 --     5 O    0.880
 ---------------------------------------------------------------------------

molecular dipole:
                 x           y           z       tot (Debye)
 q only:       15.056       5.615       3.828
   full:       15.362       5.710       4.096      42.938

 projected vibrational frequencies (cm⁻¹)
eigval :       -0.00    -0.00    -0.00     0.00     0.00     0.00
eigval :       43.56   108.25   158.05   226.99   445.58   452.05
eigval :      508.04   735.69  1037.35  1312.76  1510.39  2338.10
eigval :     2871.95  3388.94  3607.86

   temp. (K)  partition function   enthalpy   heat capacity  entropy
                                   cal/mol     cal/K/mol   cal/K/mol   J/K/mol
 298.15  VIB   52.9                 2265.875     12.216     14.568
         ROT  0.536E+05              888.752      2.981     24.620
         INT  0.284E+07             3154.627     15.197     39.188
         TR   0.439E+27             1481.254      4.968     38.130
         TOT                        4635.8808    20.1649    77.3180   323.4984

       T/K    H(0)-H(T)+PV         H(T)/Eh          T*S/Eh         G(T)/Eh
   ------------------------------------------------------------------------
    298.15    0.738775E-02    0.500933E-01    0.367363E-01    0.133570E-01
   ------------------------------------------------------------------------

         :::::::::::::::::::::::::::::::::::::::::::::::::::::
         ::                  THERMODYNAMIC                  ::
         :::::::::::::::::::::::::::::::::::::::::::::::::::::
         :: total free energy         -13.833884961465 Eh   ::
         ::.................................................::
         :: total energy              -13.847241998792 Eh   ::
         :: zero point energy           0.042705558501 Eh   ::
         :: G(RRHO) w/o ZPVE           -0.029348521174 Eh   ::
         :: G(RRHO) contrib.            0.013357037327 Eh   ::
         :::::::::::::::::::::::::::::::::::::::::::::::::::::

           -------------------------------------------------
          | TOTAL ENERGY              -13.847241998792 Eh   |
          | TOTAL ENTHALPY            -13.797148693916 Eh   |
          | TOTAL FREE ENERGY         -13.833884961465 Eh   |
          | GRADIENT NORM               0.000861318528 Eh/α |
          | HOMO-LUMO GAP               5.317531365472 eV   |
           -------------------------------------------------

 * finished run on 2025/10/17 at 21:49:49.072
normal termination of xtb
