   * xtb version 6.7.1 (edcfbbe) compiled by 'albert@albert-system' on 2024-07-22

   ID    Z sym.   atoms
    1    7 N      1
    2    6 C      2, 3
    3    1 H      4, 5

          program call               : xtb tb_lite_results_shiftn0p2_gp36_b0_rot90_solute.xyz --alpb water --charge -1 --ohess
      * Solvation model:               ALPB
        Solvent                        water
        Solvent mass                       1.8000E+01 g/mol
          :  Hamiltonian                  GFN2-xTB          :
 * total energy  :    -8.4278151 Eh     change       -0.1059952E-10 Eh
 * total energy  :    -8.4295228 Eh     change       -0.1707701E-02 Eh
 * total energy  :    -8.4295624 Eh     change       -0.3959132E-04 Eh
 * total energy  :    -8.4294466 Eh     change        0.1158362E-03 Eh
 * total energy  :    -8.4295553 Eh     change       -0.1087571E-03 Eh
 * total energy  :    -8.4295689 Eh     change       -0.1358822E-04 Eh
 * total energy  :    -8.4295691 Eh     change       -0.1609532E-06 Eh
   *** GEOMETRY OPTIMIZATION CONVERGED AFTER 7 ITERATIONS ***

 final structure:
================
5
 xtb: 6.7.1 (edcfbbe)
N           -8.63241149416560       -3.34885702181985       -1.80926658510647
C           -7.70017911833248       -2.62277426077041       -1.80467191837112
C           -6.64450666537946       -1.80397674218808       -1.79826093376574
H           -5.73266565336236       -2.07191479398543       -1.28179832598276
H           -6.67241724335501       -0.85075923396125       -2.30863128171850

          :  Hamiltonian                  GFN2-xTB          :
         :: gradient norm              0.000203903489 Eh/a0 ::
         :: HOMO-LUMO gap              3.591031852278 eV    ::
         :: SCC energy                -8.591814330513 Eh    ::
         :: -> dispersion             -0.002175080487 Eh    ::
         :: -> Gsolv                  -0.108232308054 Eh    ::
         :: repulsion energy           0.162245266623 Eh    ::

    * Orbital Energies and Occupations

         #    Occupation            Energy/Eh            Energy/eV
      -------------------------------------------------------------
         1        2.0000           -0.5493149             -14.9476
         2        2.0000           -0.5210788             -14.1793
         3        2.0000           -0.4482376             -12.1972
         4        2.0000           -0.4385488             -11.9335
         5        2.0000           -0.3850640             -10.4781
         6        2.0000           -0.3667394              -9.9795
         7        2.0000           -0.3429445              -9.3320
         8        2.0000           -0.2576684              -7.0115 (HOMO)
         9                         -0.1257004              -3.4205 (LUMO)
        10                         -0.0553126              -1.5051
        11                          0.1778633               4.8399
        12                          0.3643729               9.9151
        13                          0.4079794              11.1017
        14                          1.2042524              32.7694
      -------------------------------------------------------------
                  HL-Gap            0.1319680 Eh            3.5910 eV

     #   Z          covCN         q      C6AA      α(0)
     1   7 N        0.911    -0.615    37.095     8.809
     2   6 C        1.891     0.046    29.942     8.838
     3   6 C        2.832    -0.245    34.629     9.643
     4   1 H        0.925    -0.093     5.308     3.603
     5   1 H        0.925    -0.093     5.310     3.603

Wiberg/Mayer (AO) data.
largest (>0.10) Wiberg bond orders for each atom

     #   Z sym  total        # sym  WBO       # sym  WBO       # sym  WBO
 ---------------------------------------------------------------------------
     1   7 N    2.771 --     2 C    2.427     3 C    0.285
     2   6 C    3.945 --     1 N    2.427     3 C    1.503
     3   6 C    3.697 --     2 C    1.503     5 H    0.954     4 H    0.954
                             1 N    0.285
     4   1 H    0.991 --     3 C    0.954
     5   1 H    0.991 --     3 C    0.954
 ---------------------------------------------------------------------------

molecular dipole:
                 x           y           z       tot (Debye)
 q only:       14.622       5.015       3.409
   full:       15.037       5.337       3.412      41.474

 projected vibrational frequencies (cm⁻¹)
eigval :       -0.00    -0.00     0.00     0.00     0.00     0.00
eigval :     -228.35   376.10   486.10   953.10  1193.39  1437.20
eigval :     2260.40  2960.82  2993.70

   temp. (K)  partition function   enthalpy   heat capacity  entropy
                                   cal/mol     cal/K/mol   cal/K/mol   J/K/mol
 298.15  VIB   1.34                  399.013      3.540      1.920
         ROT  0.245E+04              888.752      2.981     18.490
         INT  0.328E+04             1287.765      6.521     20.410
         TR   0.245E+27             1481.254      4.968     36.973
         TOT                        2769.0194    11.4895    57.3835   240.0924

       T/K    H(0)-H(T)+PV         H(T)/Eh          T*S/Eh         G(T)/Eh
   ------------------------------------------------------------------------
    298.15    0.441271E-02    0.332562E-01    0.272647E-01    0.599143E-02
   ------------------------------------------------------------------------

         :::::::::::::::::::::::::::::::::::::::::::::::::::::
         ::                  THERMODYNAMIC                  ::
         :::::::::::::::::::::::::::::::::::::::::::::::::::::
         :: total free energy          -8.423577637011 Eh   ::
         ::.................................................::
         :: total energy               -8.429569063873 Eh   ::
         :: zero point energy           0.028843446661 Eh   ::
         :: G(RRHO) w/o ZPVE           -0.022852019799 Eh   ::
         :: G(RRHO) contrib.            0.005991426862 Eh   ::
         :::::::::::::::::::::::::::::::::::::::::::::::::::::

           -------------------------------------------------
          | TOTAL ENERGY               -8.429569063873 Eh   |
          | TOTAL ENTHALPY             -8.396312903945 Eh   |
          | TOTAL FREE ENERGY          -8.423577637011 Eh   |
          | GRADIENT NORM               0.000203907816 Eh/α |
          | HOMO-LUMO GAP               3.591032065879 eV   |
           -------------------------------------------------

 * finished run on 2025/10/17 at 21:45:31.171
