   * xtb version 6.7.1 (edcfbbe) compiled by 'albert@albert-system' on 2024-07-22

   ID    Z sym.   atoms
    1    6 C      1
    2   16 S      2
    3    1 H      3-5

          program call               : xtb tb_lite_results_shiftn0p1_gp162_b0_rot180_solute.xyz --ohess --chrg -1
          :  Hamiltonian                  GFN2-xTB          :
 * total energy  :    -7.1023900 Eh     change       -0.2708944E-12 Eh
 * total energy  :    -7.1031841 Eh     change       -0.7941082E-03 Eh
 * total energy  :    -7.1032489 Eh     change       -0.6480706E-04 Eh
 * total energy  :    -7.1032606 Eh     change       -0.1167483E-04 Eh
 * total energy  :    -7.1032626 Eh     change       -0.2060303E-05 Eh
   *** GEOMETRY OPTIMIZATION CONVERGED AFTER 5 ITERATIONS ***

 final structure:
================
5
 xtb: 6.7.1 (edcfbbe)
C           -3.78760848749808       -1.77183865488605        1.77213179578094
S           -5.27455041558374       -2.41839410847829        2.56328294969597
H           -4.01644174995552       -1.40340868502406        0.76469545298952
H           -3.36981415381873       -0.94300980353764        2.35651408245061
H           -3.02420128954753       -2.55494379280791        1.68855476452669

          :  Hamiltonian                  GFN2-xTB          :
         :: gradient norm              0.000473214865 Eh/a0 ::
         :: HOMO-LUMO gap              4.308465580720 eV    ::
         :: SCC energy                -7.159435886314 Eh    ::
         :: -> dispersion             -0.001954968034 Eh    ::
         :: repulsion energy           0.056173257981 Eh    ::

    * Orbital Energies and Occupations

         #    Occupation            Energy/Eh            Energy/eV
      -------------------------------------------------------------
         1        2.0000           -0.4342386             -11.8162
         2        2.0000           -0.3950679             -10.7503
         3        2.0000           -0.2961223              -8.0579
         4        2.0000           -0.2961193              -8.0578
         5        2.0000           -0.2277802              -6.1982
         6        2.0000           -0.0892064              -2.4274
         7        2.0000           -0.0892055              -2.4274 (HOMO)
         8                          0.0691277               1.8811 (LUMO)
         9                          0.2403546               6.5404
        10                          0.2403574               6.5405
        11                          0.2635719               7.1722
        12                          0.2635725               7.1722
        13                          0.3351860               9.1209
        14                          0.4085609              11.1175
        15                          0.4085690              11.1177
        16                          0.5542978              15.0832
      -------------------------------------------------------------
                  HL-Gap            0.1583332 Eh            4.3085 eV

     #   Z          covCN         q      C6AA      α(0)
     1   6 C        3.741     0.058    19.676     6.329
     2  16 S        0.971    -0.919   183.667    22.922
     3   1 H        0.924    -0.046     4.002     3.128
     4   1 H        0.924    -0.046     4.002     3.128
     5   1 H        0.924    -0.046     4.002     3.128

Wiberg/Mayer (AO) data.
largest (>0.10) Wiberg bond orders for each atom

     #   Z sym  total        # sym  WBO       # sym  WBO       # sym  WBO
 ---------------------------------------------------------------------------
     1   6 C    3.986 --     2 S    1.024     4 H    0.987     5 H    0.987
                             3 H    0.987
     2  16 S    1.057 --     1 C    1.024
     3   1 H    0.998 --     1 C    0.987
     4   1 H    0.998 --     1 C    0.987
     5   1 H    0.998 --     1 C    0.987
 ---------------------------------------------------------------------------

molecular dipole:
                 x           y           z       tot (Debye)
 q only:        9.657       4.435      -4.679
   full:       10.229       4.684      -4.983      31.274

 projected vibrational frequencies (cm⁻¹)
eigval :       -0.00    -0.00     0.00     0.00     0.00     0.00
eigval :      718.33   928.64   928.65  1331.33  1502.22  1502.24
eigval :     2853.90  2853.93  2894.22

   temp. (K)  partition function   enthalpy   heat capacity  entropy
                                   cal/mol     cal/K/mol   cal/K/mol   J/K/mol
 298.15  VIB   1.06                  139.313      2.002      0.582
         ROT  0.174E+04              888.752      2.981     17.805
         INT  0.184E+04             1028.065      4.983     18.387
         TR   0.313E+27             1481.254      4.968     37.457
         TOT                        2509.3194     9.9510    55.8437   233.6499

       T/K    H(0)-H(T)+PV         H(T)/Eh          T*S/Eh         G(T)/Eh
   ------------------------------------------------------------------------
    298.15    0.399886E-02    0.393411E-01    0.265331E-01    0.128080E-01
   ------------------------------------------------------------------------

         :::::::::::::::::::::::::::::::::::::::::::::::::::::
         ::                  THERMODYNAMIC                  ::
         :::::::::::::::::::::::::::::::::::::::::::::::::::::
         :: total free energy          -7.090454628890 Eh   ::
         ::.................................................::
         :: total energy               -7.103262628332 Eh   ::
         :: zero point energy           0.035342274498 Eh   ::
         :: G(RRHO) w/o ZPVE           -0.022534275056 Eh   ::
         :: G(RRHO) contrib.            0.012807999442 Eh   ::
         :::::::::::::::::::::::::::::::::::::::::::::::::::::

           -------------------------------------------------
          | TOTAL ENERGY               -7.103262628332 Eh   |
          | TOTAL ENTHALPY             -7.063921498834 Eh   |
          | TOTAL FREE ENERGY          -7.090454628890 Eh   |
          | GRADIENT NORM               0.000473206905 Eh/α |
          | HOMO-LUMO GAP               4.308465531040 eV   |
           -------------------------------------------------

 * finished run on 2025/10/18 at 05:56:17.644
normal termination of xtb
