   * xtb version 6.7.1 (edcfbbe) compiled by 'albert@albert-system' on 2024-07-22

   ID    Z sym.   atoms
    1    6 C      1
    2   16 S      2
    3    1 H      3-5, 7, 8
    4    8 O      6

          program call               : xtb tb_lite_results_shiftn0p1_gp162_b0_rot180_complex.xyz --ohess --chrg -1 --alpb water
      * Solvation model:               ALPB
        Solvent                        water
        Solvent mass                       1.8000E+01 g/mol
          :  Hamiltonian                  GFN2-xTB          :
 * total energy  :   -12.2897960 Eh     change       -0.2476597E-10 Eh
 * total energy  :   -12.2920512 Eh     change       -0.2255203E-02 Eh
 * total energy  :   -12.2921374 Eh     change       -0.8612793E-04 Eh
 * total energy  :   -12.2921459 Eh     change       -0.8487091E-05 Eh
 * total energy  :   -12.2921505 Eh     change       -0.4667216E-05 Eh
   *** GEOMETRY OPTIMIZATION CONVERGED AFTER 5 ITERATIONS ***

 final structure:
================
8
 xtb: 6.7.1 (edcfbbe)
C           -3.76324991752742       -1.77811081701933        1.76253864972247
S           -5.24622606850433       -2.44336539372852        2.55291934594983
H           -4.01411506513119       -1.41511956655792        0.76513495906613
H           -3.36927227355454       -0.95596712243662        2.36118628329558
H           -3.01273993713598       -2.56697229111517        1.68572185526765
O           -6.78535947874217        0.24909693275492        2.57516403212166
H           -6.29764146165387       -0.60585948632879        2.61040287876445
H           -7.71646807112845        0.00089967960782        2.58141435068153

          :  Hamiltonian                  GFN2-xTB          :
         :: gradient norm              0.000689252593 Eh/a0 ::
         :: HOMO-LUMO gap              4.413192139842 eV    ::
         :: SCC energy               -12.380393754379 Eh    ::
         :: -> dispersion             -0.003241379375 Eh    ::
         :: -> Gsolv                  -0.102485347222 Eh    ::
         :: repulsion energy           0.088243236277 Eh    ::

    * Orbital Energies and Occupations

         #    Occupation            Energy/Eh            Energy/eV
      -------------------------------------------------------------
         1        2.0000           -0.6561515             -17.8548
         2        2.0000           -0.6399155             -17.4130
         3        2.0000           -0.5800378             -15.7836
         4        2.0000           -0.5327728             -14.4975
         5        2.0000           -0.4874543             -13.2643
         6        2.0000           -0.4792782             -13.0418
         7        2.0000           -0.4791462             -13.0382
         8        2.0000           -0.4227684             -11.5041
         9        2.0000           -0.4208076             -11.4508
        10        2.0000           -0.2992800              -8.1438
        11        2.0000           -0.2945691              -8.0156 (HOMO)
        12                         -0.1323873              -3.6024 (LUMO)
        13                          0.0220674               0.6005
        14                          0.0384302               1.0457
        15                          0.0394644               1.0739
        16                          0.0553868               1.5072
        17                          0.1448685               3.9421
        18                          0.1620475               4.4095
        19                          0.2314190               6.2972
        20                          0.2346251               6.3845
        21                          0.2929177               7.9707
        22                          0.3993410              10.8666
      -------------------------------------------------------------
                  HL-Gap            0.1621818 Eh            4.4132 eV

     #   Z          covCN         q      C6AA      α(0)
     1   6 C        3.743     0.037    20.024     6.384
     2  16 S        0.993    -0.934   184.509    22.974
     3   1 H        0.925    -0.016     3.345     2.860
     4   1 H        0.925    -0.017     3.372     2.872
     5   1 H        0.924    -0.020     3.420     2.892
     6   8 O        1.607    -0.682    27.249     7.045
     7   1 H        0.825     0.279     0.782     1.388
     8   1 H        0.805     0.352     0.583     1.200

Wiberg/Mayer (AO) data.
largest (>0.10) Wiberg bond orders for each atom

     #   Z sym  total        # sym  WBO       # sym  WBO       # sym  WBO
 ---------------------------------------------------------------------------
     1   6 C    3.994 --     2 S    1.025     3 H    0.990     4 H    0.990
                             5 H    0.989
     2  16 S    1.149 --     1 C    1.025
     3   1 H    1.000 --     1 C    0.990
     4   1 H    1.000 --     1 C    0.990
     5   1 H    1.000 --     1 C    0.989
     6   8 O    1.768 --     8 H    0.876     7 H    0.860
     7   1 H    0.922 --     6 O    0.860
     8   1 H    0.876 --     6 O    0.876
 ---------------------------------------------------------------------------

molecular dipole:
                 x           y           z       tot (Debye)
 q only:        9.624       3.714      -4.768
   full:       10.112       3.690      -5.013      30.183

 projected vibrational frequencies (cm⁻¹)
eigval :       -0.00    -0.00    -0.00     0.00     0.00     0.00
eigval :     -167.10   -60.56    37.90   181.26   393.24   587.53
eigval :      731.76   942.49   944.77  1318.37  1481.40  1482.14
eigval :     1510.16  2931.79  2938.98  2960.12  3028.29  3584.57

   temp. (K)  partition function   enthalpy   heat capacity  entropy
                                   cal/mol     cal/K/mol   cal/K/mol   J/K/mol
 298.15  VIB   13.5                 1350.350      7.670      8.542
         ROT  0.701E+05              888.752      2.981     25.153
         INT  0.949E+06             2239.102     10.651     33.695
         TR   0.508E+27             1481.254      4.968     38.422
         TOT                        3720.3562    15.6194    72.1172   301.7384

       T/K    H(0)-H(T)+PV         H(T)/Eh          T*S/Eh         G(T)/Eh
   ------------------------------------------------------------------------
    298.15    0.592876E-02    0.630077E-01    0.342652E-01    0.287425E-01
   ------------------------------------------------------------------------

         :::::::::::::::::::::::::::::::::::::::::::::::::::::
         ::                  THERMODYNAMIC                  ::
         :::::::::::::::::::::::::::::::::::::::::::::::::::::
         :: total free energy         -12.263408027981 Eh   ::
         ::.................................................::
         :: total energy              -12.292150515386 Eh   ::
         :: zero point energy           0.057078938452 Eh   ::
         :: G(RRHO) w/o ZPVE           -0.028336451047 Eh   ::
         :: G(RRHO) contrib.            0.028742487405 Eh   ::
         :::::::::::::::::::::::::::::::::::::::::::::::::::::

           -------------------------------------------------
          | TOTAL ENERGY              -12.292150515386 Eh   |
          | TOTAL ENTHALPY            -12.229142811947 Eh   |
          | TOTAL FREE ENERGY         -12.263408027981 Eh   |
          | GRADIENT NORM               0.000689238474 Eh/α |
          | HOMO-LUMO GAP               4.413192036740 eV   |
           -------------------------------------------------

 * finished run on 2025/10/18 at 05:56:17.356
normal termination of xtb
