   * xtb version 6.7.1 (edcfbbe) compiled by 'albert@albert-system' on 2024-07-22

   ID    Z sym.   atoms
    1    6 C      1
    2   16 S      2
    3    1 H      3-5, 7, 8
    4    8 O      6

          program call               : xtb tb_lite_results_shiftn0p05_gp148_b0_rot90_complex.xyz --ohess --chrg -1 --alpb water
      * Solvation model:               ALPB
        Solvent                        water
        Solvent mass                       1.8000E+01 g/mol
          :  Hamiltonian                  GFN2-xTB          :
 * total energy  :   -12.2901538 Eh     change       -0.1247003E-11 Eh
 * total energy  :   -12.2921236 Eh     change       -0.1969834E-02 Eh
 * total energy  :   -12.2922151 Eh     change       -0.9148629E-04 Eh
 * total energy  :   -12.2922252 Eh     change       -0.1007236E-04 Eh
 * total energy  :   -12.2922286 Eh     change       -0.3406443E-05 Eh
   *** GEOMETRY OPTIMIZATION CONVERGED AFTER 5 ITERATIONS ***

 final structure:
================
8
 xtb: 6.7.1 (edcfbbe)
C           -3.77190972936084       -1.76354404703189        1.76959642321393
S           -5.26710884219168       -2.40050729427056        2.56067994270291
H           -4.01386376185141       -1.39960725407622        0.77063817471991
H           -3.36948932874295       -0.94547143871803        2.36980863070859
H           -3.03081822005041       -2.56141543216794        1.69753654639022
O           -6.54187313037442       -3.65380274260004        0.02160277136864
H           -6.12890233695570       -3.27509939339151        0.83113884488268
H           -7.40547702594148       -3.96820488774290        0.31150546099034

          :  Hamiltonian                  GFN2-xTB          :
         :: gradient norm              0.000607933638 Eh/a0 ::
         :: HOMO-LUMO gap              4.409964580295 eV    ::
         :: SCC energy               -12.380453088327 Eh    ::
         :: -> dispersion             -0.003220643754 Eh    ::
         :: -> Gsolv                  -0.102548185142 Eh    ::
         :: repulsion energy           0.088224519262 Eh    ::

    * Orbital Energies and Occupations

         #    Occupation            Energy/Eh            Energy/eV
      -------------------------------------------------------------
         1        2.0000           -0.6560453             -17.8519
         2        2.0000           -0.6398769             -17.4119
         3        2.0000           -0.5801815             -15.7875
         4        2.0000           -0.5326962             -14.4954
         5        2.0000           -0.4874330             -13.2637
         6        2.0000           -0.4797698             -13.0552
         7        2.0000           -0.4789009             -13.0316
         8        2.0000           -0.4228060             -11.5051
         9        2.0000           -0.4207903             -11.4503
        10        2.0000           -0.2991342              -8.1399
        11        2.0000           -0.2945550              -8.0152 (HOMO)
        12                         -0.1324918              -3.6053 (LUMO)
        13                          0.0193776               0.5273
        14                          0.0375365               1.0214
        15                          0.0437203               1.1897
        16                          0.0547219               1.4891
        17                          0.1445176               3.9325
        18                          0.1628188               4.4305
        19                          0.2314504               6.2981
        20                          0.2344864               6.3807
        21                          0.2922907               7.9536
        22                          0.3988140              10.8523
      -------------------------------------------------------------
                  HL-Gap            0.1620632 Eh            4.4100 eV

     #   Z          covCN         q      C6AA      α(0)
     1   6 C        3.743     0.037    20.024     6.384
     2  16 S        0.992    -0.934   184.538    22.976
     3   1 H        0.925    -0.015     3.330     2.854
     4   1 H        0.924    -0.019     3.417     2.891
     5   1 H        0.924    -0.019     3.401     2.884
     6   8 O        1.607    -0.682    27.247     7.045
     7   1 H        0.824     0.280     0.782     1.387
     8   1 H        0.805     0.353     0.582     1.198

Wiberg/Mayer (AO) data.
largest (>0.10) Wiberg bond orders for each atom

     #   Z sym  total        # sym  WBO       # sym  WBO       # sym  WBO
 ---------------------------------------------------------------------------
     1   6 C    3.994 --     2 S    1.025     3 H    0.990     5 H    0.989
                             4 H    0.989
     2  16 S    1.147 --     1 C    1.025
     3   1 H    1.000 --     1 C    0.990
     4   1 H    1.000 --     1 C    0.989
     5   1 H    1.000 --     1 C    0.989
     6   8 O    1.768 --     8 H    0.875     7 H    0.861
     7   1 H    0.922 --     6 O    0.861
     8   1 H    0.876 --     6 O    0.875
 ---------------------------------------------------------------------------

molecular dipole:
                 x           y           z       tot (Debye)
 q only:        9.637       4.613      -3.946
   full:       10.120       4.877      -3.967      30.281

 projected vibrational frequencies (cm⁻¹)
eigval :       -0.00    -0.00     0.00     0.00     0.00     0.00
eigval :      -36.50    47.99   147.16   180.49   403.40   588.57
eigval :      731.07   943.44   945.31  1318.53  1481.48  1482.98
eigval :     1514.49  2928.81  2938.28  2959.99  3038.80  3590.61

   temp. (K)  partition function   enthalpy   heat capacity  entropy
                                   cal/mol     cal/K/mol   cal/K/mol   J/K/mol
 298.15  VIB   21.4                 1737.850      9.746     11.202
         ROT  0.703E+05              888.752      2.981     25.160
         INT  0.151E+07             2626.602     12.727     36.362
         TR   0.508E+27             1481.254      4.968     38.422
         TOT                        4107.8563    17.6948    74.7837   312.8952

       T/K    H(0)-H(T)+PV         H(T)/Eh          T*S/Eh         G(T)/Eh
   ------------------------------------------------------------------------
    298.15    0.654629E-02    0.640504E-01    0.355322E-01    0.285183E-01
   ------------------------------------------------------------------------

         :::::::::::::::::::::::::::::::::::::::::::::::::::::
         ::                  THERMODYNAMIC                  ::
         :::::::::::::::::::::::::::::::::::::::::::::::::::::
         :: total free energy         -12.263710302010 Eh   ::
         ::.................................................::
         :: total energy              -12.292228571144 Eh   ::
         :: zero point energy           0.057504155840 Eh   ::
         :: G(RRHO) w/o ZPVE           -0.028985886706 Eh   ::
         :: G(RRHO) contrib.            0.028518269134 Eh   ::
         :::::::::::::::::::::::::::::::::::::::::::::::::::::

           -------------------------------------------------
          | TOTAL ENERGY              -12.292228571144 Eh   |
          | TOTAL ENTHALPY            -12.228178129595 Eh   |
          | TOTAL FREE ENERGY         -12.263710302010 Eh   |
          | GRADIENT NORM               0.000607901972 Eh/α |
          | HOMO-LUMO GAP               4.409964446194 eV   |
           -------------------------------------------------

 * finished run on 2025/10/18 at 05:56:19.334
normal termination of xtb
