   * xtb version 6.7.1 (edcfbbe) compiled by 'albert@albert-system' on 2024-07-22

   ID    Z sym.   atoms
    1    6 C      1
    2   16 S      2
    3    1 H      3-5, 7, 8
    4    8 O      6

          program call               : xtb tb_lite_results_shiftn0p05_gp141_b0_rot90_complex.xyz --ohess --chrg -1 --alpb water
      * Solvation model:               ALPB
        Solvent                        water
        Solvent mass                       1.8000E+01 g/mol
          :  Hamiltonian                  GFN2-xTB          :
 * total energy  :   -12.2901086 Eh     change       -0.9841017E-12 Eh
 * total energy  :   -12.2921082 Eh     change       -0.1999602E-02 Eh
 * total energy  :   -12.2922026 Eh     change       -0.9442536E-04 Eh
 * total energy  :   -12.2922136 Eh     change       -0.1099372E-04 Eh
 * total energy  :   -12.2922211 Eh     change       -0.7463876E-05 Eh
 * total energy  :   -12.2922252 Eh     change       -0.4155860E-05 Eh
 * total energy  :   -12.2922344 Eh     change       -0.9132389E-05 Eh
 * total energy  :   -12.2922431 Eh     change       -0.8731272E-05 Eh
 * total energy  :   -12.2922493 Eh     change       -0.6234389E-05 Eh
 * total energy  :   -12.2922557 Eh     change       -0.6359967E-05 Eh
 * total energy  :   -12.2922587 Eh     change       -0.3054744E-05 Eh
   *** GEOMETRY OPTIMIZATION CONVERGED AFTER 11 ITERATIONS ***

 final structure:
================
8
 xtb: 6.7.1 (edcfbbe)
C           -3.75508560337016       -1.75424354298909        1.78520302068823
S           -5.33375297338180       -2.32455460197141        2.45638958714049
H           -3.91131711378427       -1.34478844178266        0.78600297310963
H           -3.34778471209342       -0.97984342297233        2.43776983807913
H           -3.05754171388890       -2.59141729131138        1.73220030482938
O           -5.98961786298091       -4.62612397766207        0.45175152644117
H           -5.78274403725297       -3.88261388603269        1.06054631603512
H           -6.69817855240473       -5.11069186967237        0.88944389946047

          :  Hamiltonian                  GFN2-xTB          :
         :: gradient norm              0.000237185951 Eh/a0 ::
         :: HOMO-LUMO gap              4.408993327860 eV    ::
         :: SCC energy               -12.380646112183 Eh    ::
         :: -> dispersion             -0.003186913192 Eh    ::
         :: -> Gsolv                  -0.102548777059 Eh    ::
         :: repulsion energy           0.088387378002 Eh    ::

    * Orbital Energies and Occupations

         #    Occupation            Energy/Eh            Energy/eV
      -------------------------------------------------------------
         1        2.0000           -0.6559179             -17.8484
         2        2.0000           -0.6397688             -17.4090
         3        2.0000           -0.5803629             -15.7925
         4        2.0000           -0.5325324             -14.4909
         5        2.0000           -0.4872562             -13.2589
         6        2.0000           -0.4797585             -13.0549
         7        2.0000           -0.4796061             -13.0507
         8        2.0000           -0.4227882             -11.5047
         9        2.0000           -0.4207101             -11.4481
        10        2.0000           -0.2987965              -8.1307
        11        2.0000           -0.2943891              -8.0107 (HOMO)
        12                         -0.1323615              -3.6017 (LUMO)
        13                          0.0229907               0.6256
        14                          0.0378782               1.0307
        15                          0.0392237               1.0673
        16                          0.0557540               1.5171
        17                          0.1456488               3.9633
        18                          0.1615565               4.3962
        19                          0.2312389               6.2923
        20                          0.2338076               6.3622
        21                          0.2921882               7.9508
        22                          0.3964003              10.7866
      -------------------------------------------------------------
                  HL-Gap            0.1620275 Eh            4.4090 eV

     #   Z          covCN         q      C6AA      α(0)
     1   6 C        3.743     0.037    20.017     6.383
     2  16 S        0.987    -0.936   184.645    22.983
     3   1 H        0.925    -0.018     3.390     2.879
     4   1 H        0.924    -0.019     3.417     2.891
     5   1 H        0.925    -0.016     3.360     2.867
     6   8 O        1.607    -0.681    27.218     7.041
     7   1 H        0.819     0.281     0.779     1.385
     8   1 H        0.805     0.353     0.581     1.197

Wiberg/Mayer (AO) data.
largest (>0.10) Wiberg bond orders for each atom

     #   Z sym  total        # sym  WBO       # sym  WBO       # sym  WBO
 ---------------------------------------------------------------------------
     1   6 C    3.994 --     2 S    1.025     5 H    0.990     3 H    0.990
                             4 H    0.989
     2  16 S    1.142 --     1 C    1.025
     3   1 H    1.000 --     1 C    0.990
     4   1 H    1.000 --     1 C    0.989
     5   1 H    1.000 --     1 C    0.990
     6   8 O    1.769 --     8 H    0.875     7 H    0.863
     7   1 H    0.921 --     6 O    0.863
     8   1 H    0.875 --     6 O    0.875
 ---------------------------------------------------------------------------

molecular dipole:
                 x           y           z       tot (Debye)
 q only:        9.694       4.636      -3.815
   full:       10.171       4.950      -3.825      30.350

 projected vibrational frequencies (cm⁻¹)
eigval :       -0.00    -0.00     0.00     0.00     0.00     0.00
eigval :       58.73    78.88   120.01   180.88   418.89   592.82
eigval :      730.74   943.67   946.60  1318.93  1482.76  1485.10
eigval :     1516.49  2930.88  2934.72  2957.46  3072.41  3596.30

   temp. (K)  partition function   enthalpy   heat capacity  entropy
                                   cal/mol     cal/K/mol   cal/K/mol   J/K/mol
 298.15  VIB   64.6                 2230.004     11.730     15.249
         ROT  0.710E+05              888.752      2.981     25.178
         INT  0.458E+07             3118.757     14.711     40.427
         TR   0.508E+27             1481.254      4.968     38.422
         TOT                        4600.0105    19.6795    78.8492   329.9050

       T/K    H(0)-H(T)+PV         H(T)/Eh          T*S/Eh         G(T)/Eh
   ------------------------------------------------------------------------
    298.15    0.733058E-02    0.651192E-01    0.374638E-01    0.276555E-01
   ------------------------------------------------------------------------

         :::::::::::::::::::::::::::::::::::::::::::::::::::::
         ::                  THERMODYNAMIC                  ::
         :::::::::::::::::::::::::::::::::::::::::::::::::::::
         :: total free energy         -12.264603279851 Eh   ::
         ::.................................................::
         :: total energy              -12.292258735207 Eh   ::
         :: zero point energy           0.057788659777 Eh   ::
         :: G(RRHO) w/o ZPVE           -0.030133204421 Eh   ::
         :: G(RRHO) contrib.            0.027655455356 Eh   ::
         :::::::::::::::::::::::::::::::::::::::::::::::::::::

           -------------------------------------------------
          | TOTAL ENERGY              -12.292258735207 Eh   |
          | TOTAL ENTHALPY            -12.227139492052 Eh   |
          | TOTAL FREE ENERGY         -12.264603279851 Eh   |
          | GRADIENT NORM               0.000237160984 Eh/α |
          | HOMO-LUMO GAP               4.408993235741 eV   |
           -------------------------------------------------

 * finished run on 2025/10/18 at 05:56:18.553
normal termination of xtb
