   * xtb version 6.7.1 (edcfbbe) compiled by 'albert@albert-system' on 2024-07-22

   ID    Z sym.   atoms
    1    6 C      1
    2   16 S      2
    3    1 H      3-5, 7, 8
    4    8 O      6

          program call               : xtb tb_lite_results_shiftn0p1_gp141_b0_rot90_complex.xyz --ohess --chrg -1 --alpb water
      * Solvation model:               ALPB
        Solvent                        water
        Solvent mass                       1.8000E+01 g/mol
          :  Hamiltonian                  GFN2-xTB          :
 * total energy  :   -12.2898310 Eh     change       -0.3343814E-10 Eh
 * total energy  :   -12.2921119 Eh     change       -0.2280869E-02 Eh
 * total energy  :   -12.2922032 Eh     change       -0.9132813E-04 Eh
 * total energy  :   -12.2922141 Eh     change       -0.1093906E-04 Eh
 * total energy  :   -12.2922210 Eh     change       -0.6835315E-05 Eh
 * total energy  :   -12.2922269 Eh     change       -0.5895186E-05 Eh
 * total energy  :   -12.2922365 Eh     change       -0.9610482E-05 Eh
 * total energy  :   -12.2922482 Eh     change       -0.1175193E-04 Eh
 * total energy  :   -12.2922540 Eh     change       -0.5766243E-05 Eh
 * total energy  :   -12.2922574 Eh     change       -0.3398463E-05 Eh
   *** GEOMETRY OPTIMIZATION CONVERGED AFTER 10 ITERATIONS ***

 final structure:
================
8
 xtb: 6.7.1 (edcfbbe)
C           -3.74914670421721       -1.74223859015947        1.78935253596792
S           -5.31509343599805       -2.31891396282287        2.48549760344007
H           -3.92101348721980       -1.34529729063231        0.78752464240308
H           -3.34137508742042       -0.95764206409997        2.42889904418578
H           -3.04545259733481       -2.57420099060797        1.73675900359579
O           -5.99150883629242       -4.61055697450709        0.47511757474398
H           -5.77913531865544       -3.86915253115105        1.08529589812638
H           -6.70090350826274       -5.09271147315269        0.91442432058122

          :  Hamiltonian                  GFN2-xTB          :
         :: gradient norm              0.000516523180 Eh/a0 ::
         :: HOMO-LUMO gap              4.407036735348 eV    ::
         :: SCC energy               -12.380566795895 Eh    ::
         :: -> dispersion             -0.003188300306 Eh    ::
         :: -> Gsolv                  -0.102542127510 Eh    ::
         :: repulsion energy           0.088309392083 Eh    ::

    * Orbital Energies and Occupations

         #    Occupation            Energy/Eh            Energy/eV
      -------------------------------------------------------------
         1        2.0000           -0.6559228             -17.8486
         2        2.0000           -0.6397474             -17.4084
         3        2.0000           -0.5803314             -15.7916
         4        2.0000           -0.5325226             -14.4907
         5        2.0000           -0.4873182             -13.2606
         6        2.0000           -0.4797271             -13.0540
         7        2.0000           -0.4795973             -13.0505
         8        2.0000           -0.4227293             -11.5031
         9        2.0000           -0.4207407             -11.4489
        10        2.0000           -0.2988010              -8.1308
        11        2.0000           -0.2943811              -8.0105 (HOMO)
        12                         -0.1324255              -3.6035 (LUMO)
        13                          0.0229586               0.6247
        14                          0.0380356               1.0350
        15                          0.0391072               1.0642
        16                          0.0557698               1.5176
        17                          0.1454325               3.9574
        18                          0.1613351               4.3902
        19                          0.2315660               6.3012
        20                          0.2336605               6.3582
        21                          0.2915636               7.9339
        22                          0.3958244              10.7709
      -------------------------------------------------------------
                  HL-Gap            0.1619556 Eh            4.4070 eV

     #   Z          covCN         q      C6AA      α(0)
     1   6 C        3.743     0.037    20.020     6.383
     2  16 S        0.987    -0.936   184.647    22.983
     3   1 H        0.924    -0.018     3.388     2.879
     4   1 H        0.924    -0.019     3.414     2.889
     5   1 H        0.925    -0.016     3.360     2.867
     6   8 O        1.607    -0.681    27.217     7.041
     7   1 H        0.819     0.281     0.779     1.385
     8   1 H        0.805     0.353     0.581     1.197

Wiberg/Mayer (AO) data.
largest (>0.10) Wiberg bond orders for each atom

     #   Z sym  total        # sym  WBO       # sym  WBO       # sym  WBO
 ---------------------------------------------------------------------------
     1   6 C    3.994 --     2 S    1.025     5 H    0.990     3 H    0.990
                             4 H    0.989
     2  16 S    1.142 --     1 C    1.025
     3   1 H    1.000 --     1 C    0.990
     4   1 H    1.000 --     1 C    0.989
     5   1 H    1.000 --     1 C    0.990
     6   8 O    1.769 --     8 H    0.875     7 H    0.863
     7   1 H    0.921 --     6 O    0.863
     8   1 H    0.875 --     6 O    0.875
 ---------------------------------------------------------------------------

molecular dipole:
                 x           y           z       tot (Debye)
 q only:        9.664       4.625      -3.866
   full:       10.138       4.940      -3.883      30.317

 projected vibrational frequencies (cm⁻¹)
eigval :       -0.00    -0.00    -0.00    -0.00     0.00     0.00
eigval :       57.58    81.70   122.38   179.69   423.44   597.95
eigval :      730.09   943.40   945.94  1317.98  1482.76  1484.07
eigval :     1517.41  2932.33  2934.78  2957.74  3065.51  3594.64

   temp. (K)  partition function   enthalpy   heat capacity  entropy
                                   cal/mol     cal/K/mol   cal/K/mol   J/K/mol
 298.15  VIB   62.9                 2222.326     11.710     15.162
         ROT  0.710E+05              888.752      2.981     25.179
         INT  0.447E+07             3111.079     14.691     40.342
         TR   0.508E+27             1481.254      4.968     38.422
         TOT                        4592.3326    19.6593    78.7636   329.5469

       T/K    H(0)-H(T)+PV         H(T)/Eh          T*S/Eh         G(T)/Eh
   ------------------------------------------------------------------------
    298.15    0.731835E-02    0.651141E-01    0.374231E-01    0.276909E-01
   ------------------------------------------------------------------------

         :::::::::::::::::::::::::::::::::::::::::::::::::::::
         ::                  THERMODYNAMIC                  ::
         :::::::::::::::::::::::::::::::::::::::::::::::::::::
         :: total free energy         -12.264566470890 Eh   ::
         ::.................................................::
         :: total energy              -12.292257405170 Eh   ::
         :: zero point energy           0.057795713626 Eh   ::
         :: G(RRHO) w/o ZPVE           -0.030104779346 Eh   ::
         :: G(RRHO) contrib.            0.027690934280 Eh   ::
         :::::::::::::::::::::::::::::::::::::::::::::::::::::

           -------------------------------------------------
          | TOTAL ENERGY              -12.292257405170 Eh   |
          | TOTAL ENTHALPY            -12.227143343643 Eh   |
          | TOTAL FREE ENERGY         -12.264566470890 Eh   |
          | GRADIENT NORM               0.000516647931 Eh/α |
          | HOMO-LUMO GAP               4.407036959725 eV   |
           -------------------------------------------------

 * finished run on 2025/10/18 at 05:56:16.515
normal termination of xtb
