   * xtb version 6.7.1 (edcfbbe) compiled by 'albert@albert-system' on 2024-07-22

   ID    Z sym.   atoms
    1    6 C      1
    2   16 S      2
    3    1 H      3-5, 7, 8
    4    8 O      6

          program call               : xtb tb_lite_results_shiftn0p1_gp148_b0_rot90_complex.xyz --ohess --chrg -1 --alpb water
      * Solvation model:               ALPB
        Solvent                        water
        Solvent mass                       1.8000E+01 g/mol
          :  Hamiltonian                  GFN2-xTB          :
 * total energy  :   -12.2898826 Eh     change       -0.3315570E-10 Eh
 * total energy  :   -12.2921286 Eh     change       -0.2245928E-02 Eh
 * total energy  :   -12.2922160 Eh     change       -0.8744803E-04 Eh
 * total energy  :   -12.2922245 Eh     change       -0.8458570E-05 Eh
 * total energy  :   -12.2922272 Eh     change       -0.2765193E-05 Eh
   *** GEOMETRY OPTIMIZATION CONVERGED AFTER 5 ITERATIONS ***

 final structure:
================
8
 xtb: 6.7.1 (edcfbbe)
C           -3.76640201120171       -1.75931470761492        1.77519938183852
S           -5.25395474845085       -2.38716715820619        2.58822515190957
H           -4.02015379934606       -1.40156008972676        0.77701419729264
H           -3.35442935070051       -0.93851337892793        2.36516668069966
H           -3.02895841043893       -2.56024797662733        1.69935017558579
O           -6.53133031086544       -3.64135720916949        0.05091151099295
H           -6.11967559205583       -3.26393795341869        0.86129806492262
H           -7.39518473146746       -3.95620059532894        0.33965712892138

          :  Hamiltonian                  GFN2-xTB          :
         :: gradient norm              0.000368885663 Eh/a0 ::
         :: HOMO-LUMO gap              4.408519526339 eV    ::
         :: SCC energy               -12.380482280564 Eh    ::
         :: -> dispersion             -0.003227056633 Eh    ::
         :: -> Gsolv                  -0.102583079400 Eh    ::
         :: repulsion energy           0.088255051426 Eh    ::

    * Orbital Energies and Occupations

         #    Occupation            Energy/Eh            Energy/eV
      -------------------------------------------------------------
         1        2.0000           -0.6561921             -17.8559
         2        2.0000           -0.6398439             -17.4110
         3        2.0000           -0.5801013             -15.7854
         4        2.0000           -0.5328122             -14.4986
         5        2.0000           -0.4875923             -13.2681
         6        2.0000           -0.4797234             -13.0539
         7        2.0000           -0.4788220             -13.0294
         8        2.0000           -0.4227218             -11.5028
         9        2.0000           -0.4209268             -11.4540
        10        2.0000           -0.2991147              -8.1393
        11        2.0000           -0.2945173              -8.0142 (HOMO)
        12                         -0.1325072              -3.6057 (LUMO)
        13                          0.0196086               0.5336
        14                          0.0375113               1.0207
        15                          0.0438362               1.1928
        16                          0.0547136               1.4888
        17                          0.1441416               3.9223
        18                          0.1628915               4.4325
        19                          0.2315009               6.2995
        20                          0.2345883               6.3835
        21                          0.2924434               7.9578
        22                          0.3987752              10.8512
      -------------------------------------------------------------
                  HL-Gap            0.1620101 Eh            4.4085 eV

     #   Z          covCN         q      C6AA      α(0)
     1   6 C        3.743     0.037    20.026     6.384
     2  16 S        0.992    -0.934   184.552    22.977
     3   1 H        0.925    -0.015     3.326     2.852
     4   1 H        0.924    -0.019     3.418     2.891
     5   1 H        0.924    -0.019     3.400     2.884
     6   8 O        1.607    -0.682    27.245     7.045
     7   1 H        0.824     0.280     0.782     1.387
     8   1 H        0.805     0.353     0.582     1.198

Wiberg/Mayer (AO) data.
largest (>0.10) Wiberg bond orders for each atom

     #   Z sym  total        # sym  WBO       # sym  WBO       # sym  WBO
 ---------------------------------------------------------------------------
     1   6 C    3.994 --     2 S    1.025     3 H    0.990     5 H    0.990
                             4 H    0.989
     2  16 S    1.147 --     1 C    1.025
     3   1 H    1.000 --     1 C    0.990
     4   1 H    1.000 --     1 C    0.989
     5   1 H    1.000 --     1 C    0.990
     6   8 O    1.768 --     8 H    0.875     7 H    0.861
     7   1 H    0.922 --     6 O    0.861
     8   1 H    0.876 --     6 O    0.875
 ---------------------------------------------------------------------------

molecular dipole:
                 x           y           z       tot (Debye)
 q only:        9.611       4.587      -3.999
   full:       10.091       4.848      -4.027      30.240

 projected vibrational frequencies (cm⁻¹)
eigval :       -0.00    -0.00    -0.00    -0.00     0.00     0.00
eigval :        7.32    51.02   148.42   179.91   402.02   585.08
eigval :      730.90   944.05   945.79  1318.50  1481.45  1483.29
eigval :     1514.67  2928.68  2938.55  2960.40  3044.25  3590.41

   temp. (K)  partition function   enthalpy   heat capacity  entropy
                                   cal/mol     cal/K/mol   cal/K/mol   J/K/mol
 298.15  VIB   583.                 2317.176     10.808     16.626
         ROT  0.703E+05              888.752      2.981     25.159
         INT  0.410E+08             3205.928     13.789     41.785
         TR   0.508E+27             1481.254      4.968     38.422
         TOT                        4687.1823    18.7575    80.2072   335.5868

       T/K    H(0)-H(T)+PV         H(T)/Eh          T*S/Eh         G(T)/Eh
   ------------------------------------------------------------------------
    298.15    0.746950E-02    0.650039E-01    0.381090E-01    0.268949E-01
   ------------------------------------------------------------------------

         :::::::::::::::::::::::::::::::::::::::::::::::::::::
         ::                  THERMODYNAMIC                  ::
         :::::::::::::::::::::::::::::::::::::::::::::::::::::
         :: total free energy         -12.265332304861 Eh   ::
         ::.................................................::
         :: total energy              -12.292227231560 Eh   ::
         :: zero point energy           0.057534435774 Eh   ::
         :: G(RRHO) w/o ZPVE           -0.030639509075 Eh   ::
         :: G(RRHO) contrib.            0.026894926699 Eh   ::
         :::::::::::::::::::::::::::::::::::::::::::::::::::::

           -------------------------------------------------
          | TOTAL ENERGY              -12.292227231560 Eh   |
          | TOTAL ENTHALPY            -12.227223295290 Eh   |
          | TOTAL FREE ENERGY         -12.265332304861 Eh   |
          | GRADIENT NORM               0.000368880775 Eh/α |
          | HOMO-LUMO GAP               4.408519454843 eV   |
           -------------------------------------------------

 * finished run on 2025/10/18 at 05:56:15.541
normal termination of xtb
