   * xtb version 6.7.1 (edcfbbe) compiled by 'albert@albert-system' on 2024-07-22

   ID    Z sym.   atoms
    1    6 C      1, 2
    2   17 Cl     3, 5
    3    1 H      4
    4    8 O      6, 7

          program call               : xtb xyz.xyz --alpb water --charge -1 --ohess
      * Solvation model:               ALPB
        Solvent                        water
        Solvent mass                       1.8000E+01 g/mol
          :  Hamiltonian                  GFN2-xTB          :
 * total energy  :   -22.2852631 Eh     change       -0.1668319E-09 Eh
 * total energy  :   -22.3182562 Eh     change       -0.3299302E-01 Eh
 * total energy  :   -22.3208379 Eh     change       -0.2581769E-02 Eh
 * total energy  :   -22.3214741 Eh     change       -0.6361810E-03 Eh
 * total energy  :   -22.3219585 Eh     change       -0.4843893E-03 Eh
 * total energy  :   -22.3235810 Eh     change       -0.1622538E-02 Eh
 * total energy  :   -22.3266168 Eh     change       -0.3035771E-02 Eh
 * total energy  :   -22.3341193 Eh     change       -0.7502450E-02 Eh
 * total energy  :   -22.3470852 Eh     change       -0.1296591E-01 Eh
 * total energy  :   -22.3238828 Eh     change        0.2320241E-01 Eh
 * total energy  :   -22.3687672 Eh     change       -0.5055791E-03 Eh
 * total energy  :   -22.3689252 Eh     change       -0.1580473E-03 Eh
 * total energy  :   -22.3690552 Eh     change       -0.1300198E-03 Eh
 * total energy  :   -22.3690989 Eh     change       -0.4363923E-04 Eh
 * total energy  :   -22.3691532 Eh     change       -0.5430502E-04 Eh
 * total energy  :   -22.3691968 Eh     change       -0.4357774E-04 Eh
 * total energy  :   -22.3692027 Eh     change       -0.5962477E-05 Eh
 * total energy  :   -22.3691991 Eh     change        0.3655446E-05 Eh
 * total energy  :   -22.3692040 Eh     change       -0.4965953E-05 Eh
   *** GEOMETRY OPTIMIZATION CONVERGED AFTER 24 ITERATIONS ***

 final structure:
================
7
 xtb: 6.7.1 (edcfbbe)
C           -0.26643088441349       -0.92853442700012        0.90635415377556
C           -0.38440305129461       -0.78794063278223       -0.66357651980574
Cl          -1.86427173091305       -1.23130072210780        1.57555294264883
H            0.38551748037030       -1.75749345073636        1.18378226746032
Cl           0.39669674144880        0.55321288994436        1.58041431546107
O           -1.07157577083261        0.14762233765632       -1.07915368815183
O            0.23718121563474       -1.65447099497405       -1.28760147138830

          :  Hamiltonian                  GFN2-xTB          :
         :: gradient norm              0.000327297346 Eh/a0 ::
         :: HOMO-LUMO gap              4.670702487891 eV    ::
         :: SCC energy               -22.464546442333 Eh    ::
         :: -> dispersion             -0.006270055227 Eh    ::
         :: -> Gsolv                  -0.095155312112 Eh    ::
         :: repulsion energy           0.095342396809 Eh    ::

    * Orbital Energies and Occupations

         #    Occupation            Energy/Eh            Energy/eV
      -------------------------------------------------------------
         1        2.0000           -1.0802670             -29.3956
       ...           ...                  ...                  ...
         6        2.0000           -0.5919973             -16.1091
         7        2.0000           -0.5586191             -15.2008
         8        2.0000           -0.5578129             -15.1789
         9        2.0000           -0.5480145             -14.9122
        10        2.0000           -0.5189421             -14.1211
        11        2.0000           -0.5133846             -13.9699
        12        2.0000           -0.4579112             -12.4604
        13        2.0000           -0.4464413             -12.1483
        14        2.0000           -0.4397290             -11.9656
        15        2.0000           -0.4388691             -11.9422
        16        2.0000           -0.4314902             -11.7414
        17        2.0000           -0.4170056             -11.3473
        18        2.0000           -0.3907101             -10.6318 (HOMO)
        19                         -0.2190651              -5.9611 (LUMO)
        20                         -0.2009115              -5.4671
        21                         -0.1370302              -3.7288
        22                         -0.0165089              -0.4492
        23                         -0.0062287              -0.1695
        24                         -0.0011762              -0.0320
        25                         -0.0005190              -0.0141
        26                          0.0007763               0.0211
        27                          0.0019730               0.0537
        28                          0.0025737               0.0700
        29                          0.0039345               0.1071
       ...                                ...                  ...
        35                          0.6600771              17.9616
      -------------------------------------------------------------
                  HL-Gap            0.1716451 Eh            4.6707 eV

     #   Z          covCN         q      C6AA      α(0)
     1   6 C        3.673     0.102    19.126     6.268
     2   6 C        2.737     0.380    20.573     7.426
     3  17 Cl       1.083    -0.178   104.758    15.659
     4   1 H        0.925     0.079     1.994     2.209
     5  17 Cl       1.081    -0.178   104.756    15.659
     6   8 O        0.856    -0.598    26.074     6.846
     7   8 O        0.857    -0.606    26.270     6.872

Wiberg/Mayer (AO) data.
largest (>0.10) Wiberg bond orders for each atom

     #   Z sym  total        # sym  WBO       # sym  WBO       # sym  WBO
 ---------------------------------------------------------------------------
     1   6 C    3.867 --     4 H    0.973     5 Cl   0.957     3 Cl   0.956
                             2 C    0.861
     2   6 C    3.944 --     6 O    1.538     7 O    1.519     1 C    0.861
     3  17 Cl   1.043 --     1 C    0.956
     4   1 H    0.994 --     1 C    0.973
     5  17 Cl   1.044 --     1 C    0.957
     6   8 O    1.855 --     2 C    1.538     7 O    0.234
     7   8 O    1.848 --     2 C    1.519     6 O    0.234
 ---------------------------------------------------------------------------

molecular dipole:
                 x           y           z       tot (Debye)
 q only:        1.163       0.952       1.508
   full:        1.206       0.896       1.085       4.711

 projected vibrational frequencies (cm⁻¹)
eigval :       -0.00    -0.00    -0.00     0.00     0.00     0.00
eigval :      -19.20   141.97   183.79   246.65   402.90   621.04
eigval :      649.54   753.53   762.05   822.08  1117.47  1160.91
eigval :     1295.42  1750.98  2977.11

   temp. (K)  partition function   enthalpy   heat capacity  entropy
                                   cal/mol     cal/K/mol   cal/K/mol   J/K/mol
 298.15  VIB   77.6                 2219.875     12.656     13.913
         ROT  0.307E+06              888.752      2.981     28.086
         INT  0.238E+08             3108.627     15.636     41.999
         TR   0.140E+28             1481.254      4.968     40.434
         TOT                        4589.8810    20.6046    82.4331   344.9002

       T/K    H(0)-H(T)+PV         H(T)/Eh          T*S/Eh         G(T)/Eh
   ------------------------------------------------------------------------
    298.15    0.731444E-02    0.367134E-01    0.391666E-01   -0.245327E-02
   ------------------------------------------------------------------------

         :::::::::::::::::::::::::::::::::::::::::::::::::::::
         ::                  THERMODYNAMIC                  ::
         :::::::::::::::::::::::::::::::::::::::::::::::::::::
         :: total free energy         -22.371657312510 Eh   ::
         ::.................................................::
         :: total energy              -22.369204045849 Eh   ::
         :: zero point energy           0.029398931153 Eh   ::
         :: G(RRHO) w/o ZPVE           -0.031852197813 Eh   ::
         :: G(RRHO) contrib.           -0.002453266660 Eh   ::
         :::::::::::::::::::::::::::::::::::::::::::::::::::::

           -------------------------------------------------
          | TOTAL ENERGY              -22.369204045849 Eh   |
          | TOTAL ENTHALPY            -22.332490673726 Eh   |
          | TOTAL FREE ENERGY         -22.371657312510 Eh   |
          | GRADIENT NORM               0.000327459961 Eh/α |
          | HOMO-LUMO GAP               4.670700681290 eV   |
           -------------------------------------------------

 * finished run on 2025/10/18 at 21:14:45.466
