   * xtb version 6.7.1 (edcfbbe) compiled by 'albert@albert-system' on 2024-07-22

   ID    Z sym.   atoms
    1    6 C      1, 2
    2    1 H      3, 4, 6
    3    8 O      5

          program call               : xtb xyz.xyz --alpb water --charge -1 --ohess
      * Solvation model:               ALPB
        Solvent                        water
        Solvent mass                       1.8000E+01 g/mol
          :  Hamiltonian                  GFN2-xTB          :
 * total energy  :   -10.1051846 Eh     change       -0.2231104E-11 Eh
 * total energy  :   -10.1237989 Eh     change       -0.1861428E-01 Eh
 * total energy  :   -10.1270790 Eh     change       -0.3280120E-02 Eh
 * total energy  :   -10.1278925 Eh     change       -0.8135502E-03 Eh
 * total energy  :   -10.1282139 Eh     change       -0.3213824E-03 Eh
 * total energy  :   -10.1282932 Eh     change       -0.7925433E-04 Eh
 * total energy  :   -10.1283989 Eh     change       -0.1057085E-03 Eh
 * total energy  :   -10.1284095 Eh     change       -0.1063245E-04 Eh
 * total energy  :   -10.1284115 Eh     change       -0.2034818E-05 Eh
   *** GEOMETRY OPTIMIZATION CONVERGED AFTER 9 ITERATIONS ***

 final structure:
================
6
 xtb: 6.7.1 (edcfbbe)
C           -6.27955912285301       -4.18115775325188        0.82511762123896
C           -7.34519913623501       -4.59189482347001        1.53586728032002
H           -6.15703696403955       -4.46080018164531       -0.20738497956199
H           -5.51921334139096       -3.56099043879492        1.27172611134987
O           -7.64219752825724       -4.35611194186215        2.75614403110963
H           -8.08028690722423       -5.23912886097573        0.96886293554351

          :  Hamiltonian                  GFN2-xTB          :
         :: gradient norm              0.000436216903 Eh/a0 ::
         :: HOMO-LUMO gap              4.851548660343 eV    ::
         :: SCC energy               -10.243528660666 Eh    ::
         :: -> dispersion             -0.002576833746 Eh    ::
         :: -> Gsolv                  -0.109729554313 Eh    ::
         :: repulsion energy           0.115117122163 Eh    ::

    * Orbital Energies and Occupations

         #    Occupation            Energy/Eh            Energy/eV
      -------------------------------------------------------------
         1        2.0000           -0.6189831             -16.8434
         2        2.0000           -0.5617975             -15.2873
         3        2.0000           -0.5164384             -14.0530
         4        2.0000           -0.4779542             -13.0058
         5        2.0000           -0.4425779             -12.0432
         6        2.0000           -0.4306720             -11.7192
         7        2.0000           -0.4168939             -11.3443
         8        2.0000           -0.3308457              -9.0028
         9        2.0000           -0.3063491              -8.3362 (HOMO)
        10                         -0.1280580              -3.4846 (LUMO)
        11                          0.1321689               3.5965
        12                          0.1810969               4.9279
        13                          0.2886928               7.8557
        14                          0.4887242              13.2989
        15                          0.6418532              17.4657
      -------------------------------------------------------------
                  HL-Gap            0.1782911 Eh            4.8515 eV

     #   Z          covCN         q      C6AA      α(0)
     1   6 C        2.833    -0.203    33.368     9.466
     2   6 C        2.753     0.163    24.460     8.099
     3   1 H        0.926    -0.043     3.929     3.100
     4   1 H        0.926    -0.038     3.804     3.050
     5   8 O        0.856    -0.737    29.747     7.312
     6   1 H        0.917    -0.142     7.286     4.222

Wiberg/Mayer (AO) data.
largest (>0.10) Wiberg bond orders for each atom

     #   Z sym  total        # sym  WBO       # sym  WBO       # sym  WBO
 ---------------------------------------------------------------------------
     1   6 C    3.886 --     2 C    1.683     3 H    0.982     4 H    0.980
                             5 O    0.237
     2   6 C    3.961 --     1 C    1.683     5 O    1.360     6 H    0.916
     3   1 H    0.998 --     1 C    0.982
     4   1 H    0.999 --     1 C    0.980
     5   8 O    1.654 --     2 C    1.360     1 C    0.237
     6   1 H    0.980 --     2 C    0.916
 ---------------------------------------------------------------------------

molecular dipole:
                 x           y           z       tot (Debye)
 q only:       13.855       8.280      -4.017
   full:       13.855       8.207      -4.231      42.320

 projected vibrational frequencies (cm⁻¹)
eigval :       -0.00    -0.00    -0.00    -0.00     0.00     0.00
eigval :      505.95   602.03   669.25   975.50  1004.27  1219.01
eigval :     1383.00  1415.95  1685.54  2375.11  3064.33  3068.49

   temp. (K)  partition function   enthalpy   heat capacity  entropy
                                   cal/mol     cal/K/mol   cal/K/mol   J/K/mol
 298.15  VIB   1.23                  385.171      4.378      1.710
         ROT  0.962E+04              888.752      2.981     21.208
         INT  0.119E+05             1273.924      7.359     22.918
         TR   0.273E+27             1481.254      4.968     37.189
         TOT                        2755.1774    12.3268    60.1061   251.4840

       T/K    H(0)-H(T)+PV         H(T)/Eh          T*S/Eh         G(T)/Eh
   ------------------------------------------------------------------------
    298.15    0.439065E-02    0.453258E-01    0.285584E-01    0.167674E-01
   ------------------------------------------------------------------------

         :::::::::::::::::::::::::::::::::::::::::::::::::::::
         ::                  THERMODYNAMIC                  ::
         :::::::::::::::::::::::::::::::::::::::::::::::::::::
         :: total free energy         -10.111644113756 Eh   ::
         ::.................................................::
         :: total energy              -10.128411538104 Eh   ::
         :: zero point energy           0.040935131189 Eh   ::
         :: G(RRHO) w/o ZPVE           -0.024167706841 Eh   ::
         :: G(RRHO) contrib.            0.016767424348 Eh   ::
         :::::::::::::::::::::::::::::::::::::::::::::::::::::

           -------------------------------------------------
          | TOTAL ENERGY              -10.128411538104 Eh   |
          | TOTAL ENTHALPY            -10.083085752184 Eh   |
          | TOTAL FREE ENERGY         -10.111644113756 Eh   |
          | GRADIENT NORM               0.000436279887 Eh/α |
          | HOMO-LUMO GAP               4.851546787414 eV   |
           -------------------------------------------------

 * finished run on 2025/10/18 at 02:32:10.844
