                         Program Version 5.0.4 -  RELEASE  -
|  1> !SP PBE D3BJ def2-TZVP CPCM(water)
|  2>
|  3> *xyz -1 1
|  4> C           -2.16840055483329        1.50698672942772        0.02023909460222
|  5> C           -0.72011145138349        1.73208764529682       -0.37980774734410
|  6> H           -2.22367782728806        0.98716347605143        0.97375928297245
|  7> H           -2.68928822967117        2.45681611952334        0.11482662853117
|  8> H           -2.67091431290841        0.90635837232884       -0.73509097735862
|  9> S            0.17244356453591        2.72649434620791        0.82859662009412
| 10> H           -0.18446335624118        0.78520250103369       -0.46546518874143
| 11> H           -0.65325283221031        2.25977881013024       -1.33271371275580
| 12> *
| 13>
| 14>                          ****END OF INPUT****

CARTESIAN COORDINATES (ANGSTROEM)
---------------------------------
  C     -2.168401    1.506987    0.020239
  C     -0.720111    1.732088   -0.379808
  H     -2.223678    0.987163    0.973759
  H     -2.689288    2.456816    0.114827
  H     -2.670914    0.906358   -0.735091
  S      0.172444    2.726494    0.828597
  H     -0.184463    0.785203   -0.465465
  H     -0.653253    2.259779   -1.332714

 Total Charge           Charge          ....   -1
 Multiplicity           Mult            ....    1
 Number of Electrons    NEL             ....   34
 Basis Dimension        Dim             ....  129

ORBITAL ENERGIES
----------------

  NO   OCC          E(Eh)            E(eV)
   0   2.0000     -87.934781     -2392.8271
   1   2.0000      -9.869985      -268.5759
   2   2.0000      -9.851107      -268.0623
   3   2.0000      -7.561193      -205.7505
   4   2.0000      -5.582770      -151.9149
   5   2.0000      -5.576282      -151.7383
   6   2.0000      -5.576214      -151.7365
   7   2.0000      -0.681625       -18.5480
   8   2.0000      -0.569805       -15.5052
   9   2.0000      -0.474758       -12.9188
  10   2.0000      -0.382778       -10.4159
  11   2.0000      -0.351638        -9.5686
  12   2.0000      -0.314688        -8.5631
  13   2.0000      -0.293056        -7.9744
  14   2.0000      -0.244702        -6.6587
  15   2.0000      -0.138964        -3.7814
  16   2.0000      -0.137199        -3.7334
  17   0.0000       0.036683         0.9982
  18   0.0000       0.069123         1.8809
  19   0.0000       0.084259         2.2928
  20   0.0000       0.091455         2.4886
  21   0.0000       0.104115         2.8331

MULLIKEN ATOMIC CHARGES
-----------------------
   0 C :   -0.277486
   1 C :   -0.192730
   2 H :    0.083896
   3 H :    0.083880
   4 H :    0.092697
   5 S :   -0.995588
   6 H :    0.102778
   7 H :    0.102553
Sum of atomic charges:   -1.0000000

LOEWDIN ATOMIC CHARGES
----------------------
   0 C :   -0.379749
   1 C :   -0.628079
   2 H :    0.107347
   3 H :    0.107311
   4 H :    0.110573
   5 S :   -0.530491
   6 H :    0.106581
   7 H :    0.106507

  Mayer bond orders larger than 0.100000
B(  0-C ,  1-C ) :   0.9796 B(  0-C ,  2-H ) :   0.9635 B(  0-C ,  3-H ) :   0.9635
B(  0-C ,  4-H ) :   0.9451 B(  0-C ,  5-S ) :  -0.1376 B(  1-C ,  5-S ) :   1.2280
B(  1-C ,  6-H ) :   0.9658 B(  1-C ,  7-H ) :   0.9658

Dispersion correction           -0.005126122
FINAL SINGLE POINT ENERGY      -477.293833110131

DIPOLE MOMENT
-------------
                                X             Y             Z
Electronic contribution:      3.43710       2.10869       1.72834
Nuclear contribution   :     -5.03394      -3.34383      -2.96505
                        -----------------------------------------
Total Dipole Moment    :     -1.59684      -1.23514      -1.23671
                        -----------------------------------------
Magnitude (a.u.)       :      2.36747
Magnitude (Debye)      :      6.01763

Rotational constants in cm-1:     1.067775     0.186288     0.168629
Rotational constants in MHz : 32011.091618  5584.783500  5055.357991

                             ****ORCA TERMINATED NORMALLY****
TOTAL RUN TIME: 0 days 0 hours 0 minutes 22 seconds 883 msec
