   * xtb version 6.7.1 (edcfbbe) compiled by 'albert@albert-system' on 2024-07-22

   ID    Z sym.   atoms
    1    7 N      1
    2    6 C      2
    3    1 H      3, 5
    4    8 O      4, 6

          program call               : xtb xyz.xyz --alpb water --charge -1 --ohess
      * Solvation model:               ALPB
        Solvent                        water
        Solvent mass                       1.8000E+01 g/mol
          :  Hamiltonian                  GFN2-xTB          :
 * total energy  :   -14.4128364 Eh     change       -0.5329071E-13 Eh
 * total energy  :   -14.4266911 Eh     change       -0.1385475E-01 Eh
 * total energy  :   -14.4277707 Eh     change       -0.1079537E-02 Eh
 * total energy  :   -14.4306892 Eh     change       -0.2918566E-02 Eh
 * total energy  :   -14.4310980 Eh     change       -0.4087562E-03 Eh
 * total energy  :   -14.4315032 Eh     change       -0.4051662E-03 Eh
 * total energy  :   -14.4315121 Eh     change       -0.8957005E-05 Eh
 * total energy  :   -14.4315143 Eh     change       -0.2142393E-05 Eh
   *** GEOMETRY OPTIMIZATION CONVERGED AFTER 8 ITERATIONS ***

 final structure:
================
6
 xtb: 6.7.1 (edcfbbe)
N           -6.57925205510805       -2.94790056627040        3.28601396368468
C           -5.55254197611451       -2.68498322892656        2.53809054587301
H           -5.70356988183849       -2.59490308257260        1.48179434802089
O           -7.74774569416293       -3.09653690900213        2.77411706273039
H           -4.59774439221443       -2.56924798416365        3.00891541264644
O           -6.45526900056159       -3.06605322906466        4.55888166704460

          :  Hamiltonian                  GFN2-xTB          :
         :: gradient norm              0.000398746054 Eh/a0 ::
         :: HOMO-LUMO gap              3.986184834816 eV    ::
         :: SCC energy               -14.523426449881 Eh    ::
         :: -> dispersion             -0.002622464720 Eh    ::
         :: -> Gsolv                  -0.111913159864 Eh    ::
         :: repulsion energy           0.091912182534 Eh    ::

    * Orbital Energies and Occupations

         #    Occupation            Energy/Eh            Energy/eV
      -------------------------------------------------------------
         1        2.0000           -0.6813334             -18.5400
         2        2.0000           -0.6690611             -18.2061
         3        2.0000           -0.6292431             -17.1226
         4        2.0000           -0.5610791             -15.2677
         5        2.0000           -0.5520821             -15.0229
         6        2.0000           -0.5308693             -14.4457
         7        2.0000           -0.5171611             -14.0727
         8        2.0000           -0.4576650             -12.4537
         9        2.0000           -0.3942747             -10.7288
        10        2.0000           -0.3817973             -10.3892
        11        2.0000           -0.3730995             -10.1526
        12        2.0000           -0.3488099              -9.4916 (HOMO)
        13                         -0.2023203              -5.5054 (LUMO)
        14                          0.0678010               1.8450
        15                          0.1751790               4.7669
        16                          0.1769053               4.8138
        17                          0.4451482              12.1131
        18                          0.4683581              12.7447
      -------------------------------------------------------------
                  HL-Gap            0.1464896 Eh            3.9862 eV

     #   Z          covCN         q      C6AA      α(0)
     1   7 N        2.754     0.404    15.158     5.782
     2   6 C        2.780    -0.143    31.654     9.215
     3   1 H        0.926     0.047     2.357     2.401
     4   8 O        0.931    -0.678    28.053     7.103
     5   1 H        0.926     0.047     2.357     2.401
     6   8 O        0.931    -0.678    28.054     7.103

Wiberg/Mayer (AO) data.
largest (>0.10) Wiberg bond orders for each atom

     #   Z sym  total        # sym  WBO       # sym  WBO       # sym  WBO
 ---------------------------------------------------------------------------
     1   7 N    3.859 --     2 C    1.513     4 O    1.172     6 O    1.172
     2   6 C    3.902 --     1 N    1.513     5 H    0.976     3 H    0.976
                             4 O    0.218     6 O    0.218
     3   1 H    0.998 --     2 C    0.976
     4   8 O    1.539 --     1 N    1.172     2 C    0.218     6 O    0.131
     5   1 H    0.998 --     2 C    0.976
     6   8 O    1.539 --     1 N    1.172     2 C    0.218     4 O    0.131
 ---------------------------------------------------------------------------

molecular dipole:
                 x           y           z       tot (Debye)
 q only:       13.747       5.906      -7.167
   full:       13.851       5.933      -7.243      42.494

 projected vibrational frequencies (cm⁻¹)
eigval :       -0.00    -0.00     0.00     0.00     0.00     0.00
eigval :      496.04   602.82   615.23   634.57   664.23  1022.14
eigval :     1040.92  1318.32  1322.42  1619.12  3143.24  3200.29

   temp. (K)  partition function   enthalpy   heat capacity  entropy
                                   cal/mol     cal/K/mol   cal/K/mol   J/K/mol
 298.15  VIB   1.37                  562.171      6.157      2.505
         ROT  0.140E+05              888.752      2.981     21.953
         INT  0.191E+05             1450.923      9.138     24.457
         TR   0.450E+27             1481.254      4.968     38.180
         TOT                        2932.1772    14.1063    62.6369   262.0726

       T/K    H(0)-H(T)+PV         H(T)/Eh          T*S/Eh         G(T)/Eh
   ------------------------------------------------------------------------
    298.15    0.467272E-02    0.403929E-01    0.297608E-01    0.106321E-01
   ------------------------------------------------------------------------

         :::::::::::::::::::::::::::::::::::::::::::::::::::::
         ::                  THERMODYNAMIC                  ::
         :::::::::::::::::::::::::::::::::::::::::::::::::::::
         :: total free energy         -14.420882139235 Eh   ::
         ::.................................................::
         :: total energy              -14.431514267527 Eh   ::
         :: zero point energy           0.035720196592 Eh   ::
         :: G(RRHO) w/o ZPVE           -0.025088068300 Eh   ::
         :: G(RRHO) contrib.            0.010632128292 Eh   ::
         :::::::::::::::::::::::::::::::::::::::::::::::::::::

           -------------------------------------------------
          | TOTAL ENERGY              -14.431514267527 Eh   |
          | TOTAL ENTHALPY            -14.391121349205 Eh   |
          | TOTAL FREE ENERGY         -14.420882139235 Eh   |
          | GRADIENT NORM               0.000398738910 Eh/α |
          | HOMO-LUMO GAP               3.986184810048 eV   |
           -------------------------------------------------

 * finished run on 2025/10/18 at 05:22:04.630
