   * xtb version 6.7.1 (edcfbbe) compiled by 'albert@albert-system' on 2024-07-22

   ID    Z sym.   atoms
    1    6 C      1, 2, 6
    2    8 O      3-5
    3    1 H      7-9

          program call               : xtb xyz.xyz --charge -1 --ohess
          :  Hamiltonian                  GFN2-xTB          :
 * total energy  :   -20.3613149 Eh     change       -0.3068834E-10 Eh
 * total energy  :   -20.3655266 Eh     change       -0.4211687E-02 Eh
 * total energy  :   -20.3663591 Eh     change       -0.8325205E-03 Eh
 * total energy  :   -20.3661711 Eh     change        0.1879871E-03 Eh
 * total energy  :   -20.3666435 Eh     change       -0.4724043E-03 Eh
 * total energy  :   -20.3666583 Eh     change       -0.1477430E-04 Eh
 * total energy  :   -20.3666656 Eh     change       -0.7257409E-05 Eh
 * total energy  :   -20.3666671 Eh     change       -0.1521411E-05 Eh
   *** GEOMETRY OPTIMIZATION CONVERGED AFTER 8 ITERATIONS ***

 final structure:
================
9
 xtb: 6.7.1 (edcfbbe)
C           -5.30555448813171       -3.62093903656001        0.51345428019251
C           -6.47142285822601       -4.15961515026604        1.32265605711763
O           -8.36220160642352       -5.61967513419266        1.15629304501698
O           -6.62446634326458       -3.85852430284190        2.48934433732326
O           -7.13890377126371       -5.24856286846403       -0.68844253876203
C           -7.43791645994367       -5.11915017774575        0.50934775724486
H           -4.64746548760622       -3.00290810099188        1.12495818864211
H           -4.76158036586323       -4.46120728998972        0.08928296203066
H           -5.70708961927734       -3.04406193894801       -0.31665608880598

          :  Hamiltonian                  GFN2-xTB          :
         :: gradient norm              0.000393430988 Eh/a0 ::
         :: HOMO-LUMO gap              1.849779955804 eV    ::
         :: SCC energy               -20.535349196907 Eh    ::
         :: -> dispersion             -0.005325390624 Eh    ::
         :: repulsion energy           0.168682124884 Eh    ::

    * Orbital Energies and Occupations

         #    Occupation            Energy/Eh            Energy/eV
      -------------------------------------------------------------
         1        2.0000           -0.5431073             -14.7787
       ...           ...                  ...                  ...
         5        2.0000           -0.4320680             -11.7572
         6        2.0000           -0.3931756             -10.6989
         7        2.0000           -0.3776142             -10.2754
         8        2.0000           -0.3623291              -9.8595
         9        2.0000           -0.3565868              -9.7032
        10        2.0000           -0.3290777              -8.9547
        11        2.0000           -0.3255637              -8.8590
        12        2.0000           -0.3182794              -8.6608
        13        2.0000           -0.3011963              -8.1960
        14        2.0000           -0.2644320              -7.1956
        15        2.0000           -0.2120161              -5.7693
        16        2.0000           -0.1978189              -5.3829
        17        2.0000           -0.1698612              -4.6222 (HOMO)
        18                         -0.1018831              -2.7724 (LUMO)
        19                          0.0391824               1.0662
        20                          0.2290449               6.2326
        21                          0.3011982               8.1960
        22                          0.3281454               8.9293
        23                          0.3522939               9.5864
        24                          0.3669616               9.9855
        25                          0.5999847              16.3264
        26                          0.6998275              19.0433
        27                          0.9178238              24.9753
      -------------------------------------------------------------
                  HL-Gap            0.0679780 Eh            1.8498 eV

     #   Z          covCN         q      C6AA      α(0)
     1   6 C        3.751    -0.113    22.724     6.798
     2   6 C        2.800     0.180    24.127     8.047
     3   8 O        0.856    -0.552    24.970     6.700
     4   8 O        0.856    -0.394    21.568     6.226
     5   8 O        0.856    -0.585    25.763     6.805
     6   6 C        2.679     0.346    21.131     7.522
     7   1 H        0.924     0.018     2.761     2.599
     8   1 H        0.925     0.050     2.318     2.381
     9   1 H        0.925     0.051     2.313     2.378

Wiberg/Mayer (AO) data.
largest (>0.10) Wiberg bond orders for each atom

     #   Z sym  total        # sym  WBO       # sym  WBO       # sym  WBO
 ---------------------------------------------------------------------------
     1   6 C    3.997 --     2 C    0.995     7 H    0.987     8 H    0.968
                             9 H    0.965
     2   6 C    3.834 --     4 O    1.865     1 C    0.995     6 C    0.831
     3   8 O    1.896 --     6 C    1.546     5 O    0.256
     4   8 O    2.046 --     2 C    1.865
     5   8 O    1.854 --     6 C    1.513     3 O    0.256
     6   6 C    3.951 --     3 O    1.546     5 O    1.513     2 C    0.831
     7   1 H    1.000 --     1 C    0.987
     8   1 H    0.997 --     1 C    0.968
     9   1 H    0.997 --     1 C    0.965
 ---------------------------------------------------------------------------

molecular dipole:
                 x           y           z       tot (Debye)
 q only:       14.472       9.740      -1.609
   full:       14.706       9.891      -1.660      45.245

 projected vibrational frequencies (cm⁻¹)
eigval :       -0.00    -0.00     0.00     0.00     0.00     0.00
eigval :      -56.48    49.92   225.35   319.16   363.04   512.99
eigval :      605.33   713.20   741.93   935.57   952.11  1122.13
eigval :     1284.02  1339.48  1449.49  1460.21  1739.78  1776.18
eigval :     2984.89  3026.27  3039.68

   temp. (K)  partition function   enthalpy   heat capacity  entropy
                                   cal/mol     cal/K/mol   cal/K/mol   J/K/mol
 298.15  VIB   13.7                 1774.634     11.935     10.518
         ROT  0.128E+06              888.752      2.981     26.356
         INT  0.176E+07             2663.386     14.916     36.874
         TR   0.786E+27             1481.254      4.968     39.287
         TOT                        4144.6403    19.8843    76.1607   318.6563

       T/K    H(0)-H(T)+PV         H(T)/Eh          T*S/Eh         G(T)/Eh
   ------------------------------------------------------------------------
    298.15    0.660490E-02    0.627406E-01    0.361864E-01    0.265542E-01
   ------------------------------------------------------------------------

         :::::::::::::::::::::::::::::::::::::::::::::::::::::
         ::                  THERMODYNAMIC                  ::
         :::::::::::::::::::::::::::::::::::::::::::::::::::::
         :: total free energy         -20.340112880237 Eh   ::
         ::.................................................::
         :: total energy              -20.366667072028 Eh   ::
         :: zero point energy           0.056135682700 Eh   ::
         :: G(RRHO) w/o ZPVE           -0.029581490909 Eh   ::
         :: G(RRHO) contrib.            0.026554191792 Eh   ::
         :::::::::::::::::::::::::::::::::::::::::::::::::::::

           -------------------------------------------------
          | TOTAL ENERGY              -20.366667072028 Eh   |
          | TOTAL ENTHALPY            -20.303926484639 Eh   |
          | TOTAL FREE ENERGY         -20.340112880237 Eh   |
          | GRADIENT NORM               0.000393238278 Eh/α |
          | HOMO-LUMO GAP               1.849775718609 eV   |
           -------------------------------------------------

 * finished run on 2025/10/18 at 03:51:54.818
