   * xtb version 6.7.1 (edcfbbe) compiled by 'albert@albert-system' on 2024-07-22

   ID    Z sym.   atoms
    1    6 C      1, 2, 4, 5, 7, 9, 11
    2    1 H      3, 6, 8, 12-15, 17, 18
    3    8 O      10, 16

          program call               : xtb tb_lite_results_shiftn0p2_gp570_b0_rot180_complex.xyz --ohess --chrg -1 --alpb water
      * Solvation model:               ALPB
        Solvent                        water
        Solvent mass                       1.8000E+01 g/mol
          :  Hamiltonian                  GFN2-xTB          :
 * total energy  :   -27.9964184 Eh     change       -0.9259082E-09 Eh
 * total energy  :   -28.0008407 Eh     change       -0.4422272E-02 Eh
 * total energy  :   -28.0012359 Eh     change       -0.3952450E-03 Eh
 * total energy  :   -28.0013245 Eh     change       -0.8858721E-04 Eh
 * total energy  :   -28.0014741 Eh     change       -0.1495934E-03 Eh
 * total energy  :   -28.0015920 Eh     change       -0.1178833E-03 Eh
 * total energy  :   -28.0016943 Eh     change       -0.1023454E-03 Eh
 * total energy  :   -28.0017942 Eh     change       -0.9987089E-04 Eh
 * total energy  :   -28.0018557 Eh     change       -0.6146924E-04 Eh
 * total energy  :   -28.0019063 Eh     change       -0.5064571E-04 Eh
 * total energy  :   -28.0027774 Eh     change       -0.1610782E-04 Eh
 * total energy  :   -28.0028030 Eh     change       -0.2558377E-04 Eh
 * total energy  :   -28.0027769 Eh     change        0.2609922E-04 Eh
 * total energy  :   -28.0028258 Eh     change       -0.4898219E-04 Eh
 * total energy  :   -28.0028312 Eh     change       -0.5412719E-05 Eh
 * total energy  :   -28.0028516 Eh     change       -0.2033664E-04 Eh
 * total energy  :   -28.0028546 Eh     change       -0.3012229E-05 Eh
 * total energy  :   -28.0028614 Eh     change       -0.6792809E-05 Eh
 * total energy  :   -28.0028649 Eh     change       -0.3473987E-05 Eh
   *** GEOMETRY OPTIMIZATION CONVERGED AFTER 39 ITERATIONS ***

 final structure:
================
18
 xtb: 6.7.1 (edcfbbe)
C           -5.33193996097686       -6.32754176248304        2.92134900797389
C           -5.14493790180823       -5.08629492595014        3.50877703927132
H           -6.08049976438290       -7.00485920121951        3.30815922366883
C           -4.73109654824429       -8.03606277446793        1.17475468005808
C           -4.19734866285144       -4.21157558004375        3.03079705142327
H           -5.75223536509897       -4.79636659600043        4.35803134416185
C           -3.38168398804160       -4.54549645892991        1.92377442863497
H           -4.05200552529483       -3.24039925757754        3.49090422244863
C           -3.59964572719450       -5.81733943533184        1.34875816543077
O           -2.48530615861341       -3.72030840595026        1.47392927099889
C           -4.55170921929245       -6.69468167453010        1.83096634704286
H           -5.54656444537102       -8.58515135900511        1.63893282664271
H           -4.94580568305207       -7.91013923088996        0.11465488726769
H           -3.81666117284759       -8.62158545080480        1.26182871268940
H           -2.98815205917900       -6.09311727842824        0.49677672598662
O           -1.02059438520931       -4.45287445316016       -0.56766900926462
H           -1.61917527874974       -4.18137406163181        0.19313502909159
H           -0.15576773554114       -4.10647408160208       -0.32745578265258

          :  Hamiltonian                  GFN2-xTB          :
         :: gradient norm              0.000564100080 Eh/a0 ::
         :: HOMO-LUMO gap              3.600518064573 eV    ::
         :: SCC energy               -28.384748373676 Eh    ::
         :: -> dispersion             -0.013905729051 Eh    ::
         :: -> Gsolv                  -0.102737296768 Eh    ::
         :: repulsion energy           0.381883511320 Eh    ::

    * Orbital Energies and Occupations

         #    Occupation            Energy/Eh            Energy/eV
      -------------------------------------------------------------
         1        2.0000           -0.6452765             -17.5589
       ...           ...                  ...                  ...
        13        2.0000           -0.4760056             -12.9528
        14        2.0000           -0.4685321             -12.7494
        15        2.0000           -0.4503876             -12.2557
        16        2.0000           -0.4494694             -12.2307
        17        2.0000           -0.4454632             -12.1217
        18        2.0000           -0.4412487             -12.0070
        19        2.0000           -0.4100855             -11.1590
        20        2.0000           -0.4076013             -11.0914
        21        2.0000           -0.4050701             -11.0225
        22        2.0000           -0.4002253             -10.8907
        23        2.0000           -0.3643845              -9.9154
        24        2.0000           -0.3352052              -9.1214
        25        2.0000           -0.3194136              -8.6917 (HOMO)
        26                         -0.1870969              -5.0912 (LUMO)
        27                         -0.1674730              -4.5572
        28                         -0.0520014              -1.4150
        29                          0.1200362               3.2664
        30                          0.1272447               3.4625
        31                          0.1436933               3.9101
        32                          0.1791529               4.8750
        33                          0.1918807               5.2213
        34                          0.2033307               5.5329
        35                          0.2196110               5.9759
        36                          0.2284552               6.2166
       ...                                ...                  ...
        45                          0.7014126              19.0864
      -------------------------------------------------------------
                  HL-Gap            0.1323167 Eh            3.6005 eV

     #   Z          covCN         q      C6AA      α(0)
     1   6 C        2.923    -0.082    30.048     8.989
     2   6 C        2.914    -0.050    29.253     8.869
     3   1 H        0.926     0.005     2.968     2.694
     4   6 C        3.758    -0.109    22.643     6.784
     5   6 C        2.919    -0.096    30.417     9.044
     6   1 H        0.925     0.001     3.044     2.728
     7   6 C        2.834     0.158    24.579     8.124
     8   1 H        0.925    -0.022     3.477     2.916
     9   6 C        2.925    -0.103    30.603     9.072
    10   8 O        0.858    -0.722    29.318     7.260
    11   6 C        2.963    -0.007    28.198     8.710
    12   1 H        0.925     0.041     2.434     2.440
    13   1 H        0.925     0.038     2.479     2.462
    14   1 H        0.925     0.039     2.461     2.453
    15   1 H        0.925    -0.008     3.195     2.795
    16   8 O        1.603    -0.718    28.194     7.166
    17   1 H        0.799     0.301     0.718     1.332
    18   1 H        0.805     0.335     0.624     1.241

Wiberg/Mayer (AO) data.
largest (>0.10) Wiberg bond orders for each atom

     #   Z sym  total        # sym  WBO       # sym  WBO       # sym  WBO
 ---------------------------------------------------------------------------
     1   6 C    3.978 --     2 C    1.410    11 C    1.388     3 H    0.970
     2   6 C    3.990 --     5 C    1.487     1 C    1.410     6 H    0.971
     3   1 H    1.000 --     1 C    0.970
     4   6 C    3.998 --    11 C    1.018    12 H    0.986    13 H    0.978
                            14 H    0.976
     5   6 C    3.979 --     2 C    1.487     7 C    1.270     8 H    0.972
     6   1 H    1.000 --     2 C    0.971
     7   6 C    3.963 --    10 O    1.301     9 C    1.283     5 C    1.270
     8   1 H    0.999 --     5 C    0.972
     9   6 C    3.979 --    11 C    1.458     7 C    1.283    15 H    0.969
    10   8 O    1.717 --     7 C    1.301    17 H    0.102
    11   6 C    3.987 --     9 C    1.458     1 C    1.388     4 C    1.018
    12   1 H    0.998 --     4 C    0.986
    13   1 H    0.998 --     4 C    0.978
    14   1 H    0.998 --     4 C    0.976
    15   1 H    1.000 --     9 C    0.969
    16   8 O    1.741 --    18 H    0.887    17 H    0.801
    17   1 H    0.909 --    16 O    0.801    10 O    0.102
    18   1 H    0.888 --    16 O    0.887
 ---------------------------------------------------------------------------

molecular dipole:
                 x           y           z       tot (Debye)
 q only:        5.647       8.177      -2.520
   full:        5.638       8.253      -2.321      26.080

 projected vibrational frequencies (cm⁻¹)
eigval :       -0.00    -0.00    -0.00     0.00     0.00     0.00
eigval :      -47.49    34.48    64.64   186.96   195.03   206.69
eigval :      218.38   319.47   407.63   468.81   511.70   523.95
eigval :      546.23   562.62   655.40   749.55   765.56   828.53
eigval :      862.18   873.69   904.84   963.82   980.32  1028.49
eigval :     1030.14  1123.72  1184.93  1197.46  1272.41  1303.39
eigval :     1347.64  1392.71  1447.00  1479.59  1484.96  1494.75
eigval :     1541.73  1562.01  1604.79  2673.03  2996.37  3004.14
eigval :     3012.04  3020.91  3030.53  3031.20  3052.79  3616.50

   temp. (K)  partition function   enthalpy   heat capacity  entropy
                                   cal/mol     cal/K/mol   cal/K/mol   J/K/mol
 298.15  VIB   457.                 4071.015     27.107     24.217
         ROT  0.639E+06              888.752      2.981     29.546
         INT  0.292E+09             4959.767     30.088     53.763
         TR   0.135E+28             1481.254      4.968     40.368
         TOT                        6441.0210    35.0561    94.1316   393.8468

       T/K    H(0)-H(T)+PV         H(T)/Eh          T*S/Eh         G(T)/Eh
   ------------------------------------------------------------------------
    298.15    0.102644E-01    0.148694E+00    0.447250E-01    0.103969E+00
   ------------------------------------------------------------------------

         :::::::::::::::::::::::::::::::::::::::::::::::::::::
         ::                  THERMODYNAMIC                  ::
         :::::::::::::::::::::::::::::::::::::::::::::::::::::
         :: total free energy         -27.898895513620 Eh   ::
         ::.................................................::
         :: total energy              -28.002864861824 Eh   ::
         :: zero point energy           0.138429904853 Eh   ::
         :: G(RRHO) w/o ZPVE           -0.034460556648 Eh   ::
         :: G(RRHO) contrib.            0.103969348205 Eh   ::
         :::::::::::::::::::::::::::::::::::::::::::::::::::::

           -------------------------------------------------
          | TOTAL ENERGY              -28.002864861824 Eh   |
          | TOTAL ENTHALPY            -27.854170536634 Eh   |
          | TOTAL FREE ENERGY         -27.898895513620 Eh   |
          | GRADIENT NORM               0.000563756346 Eh/α |
          | HOMO-LUMO GAP               3.600521118794 eV   |
           -------------------------------------------------

 * finished run on 2025/10/18 at 03:04:13.279
normal termination of xtb
