   * xtb version 6.7.1 (edcfbbe) compiled by 'albert@albert-system' on 2024-07-22

   ID    Z sym.   atoms
    1    6 C      1, 2, 4, 5, 7, 9, 11
    2    1 H      3, 6, 8, 12-15
    3    8 O      10

          program call               : xtb tb_lite_results_shiftn0p1_gp552_b0_rot180_solute.xyz --ohess --chrg -1
          :  Hamiltonian                  GFN2-xTB          :
 * total energy  :   -22.8117396 Eh     change       -0.5043077E-10 Eh
 * total energy  :   -22.8146608 Eh     change       -0.2921247E-02 Eh
 * total energy  :   -22.8148056 Eh     change       -0.1447674E-03 Eh
 * total energy  :   -22.8148136 Eh     change       -0.8048847E-05 Eh
 * total energy  :   -22.8148142 Eh     change       -0.5596892E-06 Eh
   *** GEOMETRY OPTIMIZATION CONVERGED AFTER 5 ITERATIONS ***

 final structure:
================
15
 xtb: 6.7.1 (edcfbbe)
C           -5.23229112465648       -6.37928666151163        2.97531066114037
C           -5.06914844443666       -5.12926361688242        3.56158755934718
H           -5.90262336985455       -7.11190118717088        3.41354614157669
C           -4.67471456457188       -8.02357588006286        1.15412311427242
C           -4.22709155565026       -4.19060947244475        3.02260960427509
H           -5.62537902426273       -4.89589750658878        4.46875451092341
C           -3.47042900334859       -4.43764593699939        1.83148893665028
H           -4.11611511151282       -3.22153401227104        3.49890057820299
C           -3.67277720312996       -5.73794026542699        1.26815218770918
O           -2.69113949198733       -3.58587890063579        1.32433713188247
C           -4.52007350474148       -6.67428106827506        1.81577546571654
H           -5.38061095897649       -8.64873436072921        1.70199301368470
H           -5.03721802448827       -7.91304658158610        0.13013814745431
H           -3.71642594230665       -8.54517532545113        1.11090311569648
H           -3.12275600460937       -5.98074567127521        0.36379998898520

          :  Hamiltonian                  GFN2-xTB          :
         :: gradient norm              0.000833581711 Eh/a0 ::
         :: HOMO-LUMO gap              3.242652290068 eV    ::
         :: SCC energy               -23.165849858496 Eh    ::
         :: -> dispersion             -0.012509037981 Eh    ::
         :: repulsion energy           0.351035676463 Eh    ::

    * Orbital Energies and Occupations

         #    Occupation            Energy/Eh            Energy/eV
      -------------------------------------------------------------
         1        2.0000           -0.4639954             -12.6260
       ...           ...                  ...                  ...
         9        2.0000           -0.3439820              -9.3602
        10        2.0000           -0.3384980              -9.2110
        11        2.0000           -0.3171808              -8.6309
        12        2.0000           -0.2991183              -8.1394
        13        2.0000           -0.2926167              -7.9625
        14        2.0000           -0.2874087              -7.8208
        15        2.0000           -0.2800501              -7.6206
        16        2.0000           -0.2470202              -6.7218
        17        2.0000           -0.2466628              -6.7120
        18        2.0000           -0.2426464              -6.6027
        19        2.0000           -0.2082834              -5.6677
        20        2.0000           -0.1526683              -4.1543
        21        2.0000           -0.1466711              -3.9911 (HOMO)
        22                         -0.0275058              -0.7485 (LUMO)
        23                         -0.0022473              -0.0612
        24                          0.1097716               2.9870
        25                          0.2608367               7.0977
        26                          0.2804468               7.6313
        27                          0.3109559               8.4615
        28                          0.3230129               8.7896
        29                          0.3349607               9.1147
        30                          0.3516622               9.5692
        31                          0.3653920               9.9428
        32                          0.3804156              10.3516
       ...                                ...                  ...
        39                          0.8759239              23.8351
      -------------------------------------------------------------
                  HL-Gap            0.1191653 Eh            3.2427 eV

     #   Z          covCN         q      C6AA      α(0)
     1   6 C        2.920    -0.093    30.341     9.033
     2   6 C        2.911    -0.050    29.252     8.869
     3   1 H        0.925    -0.043     3.915     3.094
     4   6 C        3.756    -0.085    22.179     6.715
     5   6 C        2.917    -0.102    30.575     9.067
     6   1 H        0.925    -0.040     3.849     3.068
     7   6 C        2.828     0.181    24.119     8.047
     8   1 H        0.925    -0.024     3.506     2.928
     9   6 C        2.923    -0.108    30.721     9.089
    10   8 O        0.857    -0.615    26.484     6.900
    11   6 C        2.961    -0.016    28.409     8.742
    12   1 H        0.924     0.003     3.015     2.715
    13   1 H        0.924     0.007     2.946     2.684
    14   1 H        0.924     0.007     2.946     2.684
    15   1 H        0.925    -0.021     3.454     2.906

Wiberg/Mayer (AO) data.
largest (>0.10) Wiberg bond orders for each atom

     #   Z sym  total        # sym  WBO       # sym  WBO       # sym  WBO
 ---------------------------------------------------------------------------
     1   6 C    3.963 --     2 C    1.384    11 C    1.371     3 H    0.969
     2   6 C    3.986 --     5 C    1.519     1 C    1.384     6 H    0.969
     3   1 H    0.998 --     1 C    0.969
     4   6 C    3.993 --    11 C    1.005    12 H    0.988    13 H    0.981
                            14 H    0.981
     5   6 C    3.976 --     2 C    1.519     7 C    1.202     8 H    0.972
                            10 O    0.103
     6   1 H    0.998 --     2 C    0.969
     7   6 C    3.971 --    10 O    1.467     9 C    1.210     5 C    1.202
     8   1 H    0.999 --     5 C    0.972
     9   6 C    3.972 --    11 C    1.490     7 C    1.210    15 H    0.971
                            10 O    0.108
    10   8 O    1.787 --     7 C    1.467     9 C    0.108     5 C    0.103
    11   6 C    3.980 --     9 C    1.490     1 C    1.371     4 C    1.005
    12   1 H    1.000 --     4 C    0.988
    13   1 H    1.000 --     4 C    0.981
    14   1 H    1.000 --     4 C    0.981
    15   1 H    1.000 --     9 C    0.971
 ---------------------------------------------------------------------------

molecular dipole:
                 x           y           z       tot (Debye)
 q only:        6.869       8.808      -3.616
   full:        6.654       8.512      -3.515      28.877

 projected vibrational frequencies (cm⁻¹)
eigval :       -0.00    -0.00    -0.00     0.00     0.00     0.00
eigval :      -46.22   189.36   197.94   298.23   402.85   458.35
eigval :      497.61   520.35   540.58   655.59   743.59   748.52
eigval :      795.93   848.02   904.15   944.98   977.49  1017.54
eigval :     1025.98  1120.88  1188.80  1191.19  1245.26  1296.52
eigval :     1392.70  1394.81  1471.12  1502.60  1509.70  1541.64
eigval :     1554.75  1626.34  2945.73  2960.63  2974.56  2988.84
eigval :     2996.81  3004.87  3015.05

   temp. (K)  partition function   enthalpy   heat capacity  entropy
                                   cal/mol     cal/K/mol   cal/K/mol   J/K/mol
 298.15  VIB   7.40                 2232.463     19.110     11.465
         ROT  0.293E+06              888.752      2.981     27.997
         INT  0.217E+07             3121.215     22.091     39.461
         TR   0.107E+28             1481.254      4.968     39.905
         TOT                        4602.4694    27.0592    79.3664   332.0691

       T/K    H(0)-H(T)+PV         H(T)/Eh          T*S/Eh         G(T)/Eh
   ------------------------------------------------------------------------
    298.15    0.733450E-02    0.122815E+00    0.377095E-01    0.851050E-01
   ------------------------------------------------------------------------

         :::::::::::::::::::::::::::::::::::::::::::::::::::::
         ::                  THERMODYNAMIC                  ::
         :::::::::::::::::::::::::::::::::::::::::::::::::::::
         :: total free energy         -22.729709186157 Eh   ::
         ::.................................................::
         :: total energy              -22.814814182035 Eh   ::
         :: zero point energy           0.115480035959 Eh   ::
         :: G(RRHO) w/o ZPVE           -0.030375040081 Eh   ::
         :: G(RRHO) contrib.            0.085104995878 Eh   ::
         :::::::::::::::::::::::::::::::::::::::::::::::::::::

           -------------------------------------------------
          | TOTAL ENERGY              -22.814814182035 Eh   |
          | TOTAL ENTHALPY            -22.691999644218 Eh   |
          | TOTAL FREE ENERGY         -22.729709186157 Eh   |
          | GRADIENT NORM               0.000833637838 Eh/α |
          | HOMO-LUMO GAP               3.242652912037 eV   |
           -------------------------------------------------

 * finished run on 2025/10/18 at 03:04:11.016
normal termination of xtb
