   * xtb version 6.7.1 (edcfbbe) compiled by 'albert@albert-system' on 2024-07-22

   ID    Z sym.   atoms
    1    6 C      1, 2, 4, 5, 7, 9, 11
    2    1 H      3, 6, 8, 12-15, 17, 18
    3    8 O      10, 16

          program call               : xtb tb_lite_results_shiftn0p15_gp552_b0_rot180_complex.xyz --ohess --chrg -1 --alpb water
      * Solvation model:               ALPB
        Solvent                        water
        Solvent mass                       1.8000E+01 g/mol
          :  Hamiltonian                  GFN2-xTB          :
 * total energy  :   -27.9964384 Eh     change       -0.8106120E-09 Eh
 * total energy  :   -28.0005310 Eh     change       -0.4092604E-02 Eh
 * total energy  :   -28.0009408 Eh     change       -0.4097187E-03 Eh
 * total energy  :   -28.0010606 Eh     change       -0.1197908E-03 Eh
 * total energy  :   -28.0011887 Eh     change       -0.1281219E-03 Eh
 * total energy  :   -28.0012224 Eh     change       -0.3368125E-04 Eh
 * total energy  :   -28.0013339 Eh     change       -0.1115063E-03 Eh
 * total energy  :   -28.0013841 Eh     change       -0.5022774E-04 Eh
 * total energy  :   -28.0014539 Eh     change       -0.6975651E-04 Eh
 * total energy  :   -28.0015516 Eh     change       -0.9775611E-04 Eh
 * total energy  :   -28.0027652 Eh     change       -0.2518568E-04 Eh
 * total energy  :   -28.0027724 Eh     change       -0.7119174E-05 Eh
 * total energy  :   -28.0027977 Eh     change       -0.2532321E-04 Eh
 * total energy  :   -28.0028163 Eh     change       -0.1860269E-04 Eh
 * total energy  :   -28.0019670 Eh     change        0.8492902E-03 Eh
 * total energy  :   -28.0027793 Eh     change       -0.8122775E-03 Eh
 * total energy  :   -28.0028522 Eh     change       -0.7289301E-04 Eh
 * total energy  :   -28.0028585 Eh     change       -0.6362102E-05 Eh
 * total energy  :   -28.0028620 Eh     change       -0.3488384E-05 Eh
   *** GEOMETRY OPTIMIZATION CONVERGED AFTER 42 ITERATIONS ***

 final structure:
================
18
 xtb: 6.7.1 (edcfbbe)
C           -5.03491793475664       -6.51007497316129        3.10010365506480
C           -4.93517237771322       -5.25425817113929        3.67811149632508
H           -5.49782769772824       -7.32340406660620        3.64173415227500
C           -4.61692980294383       -8.07566469152588        1.17794938766396
C           -4.35006481676687       -4.20593826063948        3.00625924313654
H           -5.32454434557438       -5.09050616500406        4.67605419444805
C           -3.82819634201235       -4.37433292579121        1.70241570894715
H           -4.27362425567998       -3.22568902650255        3.46153765469388
C           -3.94846346784467       -5.66645750159262        1.14259471519836
O           -3.27024290576855       -3.40401511633739        1.04307171915149
C           -4.53673522415083       -6.71722614774130        1.81876610412096
H           -5.35814629703744       -8.69271985797263        1.68031323525362
H           -4.87979264072694       -7.98521649480304        0.12572506233309
H           -3.64944267525718       -8.57449049969510        1.24177086495742
H           -3.55521694466494       -5.81242805556926        0.14168902373567
O           -3.15254103787127       -1.05371181270743        2.18855284248494
H           -3.17746920646744       -1.97392344146056        1.78216101569107
H           -3.28752318487437       -0.45747693222817        1.44573329638741

          :  Hamiltonian                  GFN2-xTB          :
         :: gradient norm              0.000745600833 Eh/a0 ::
         :: HOMO-LUMO gap              3.605917124247 eV    ::
         :: SCC energy               -28.384406731361 Eh    ::
         :: -> dispersion             -0.013907789793 Eh    ::
         :: -> Gsolv                  -0.103072533701 Eh    ::
         :: repulsion energy           0.381544721395 Eh    ::

    * Orbital Energies and Occupations

         #    Occupation            Energy/Eh            Energy/eV
      -------------------------------------------------------------
         1        2.0000           -0.6455189             -17.5655
       ...           ...                  ...                  ...
        13        2.0000           -0.4769761             -12.9792
        14        2.0000           -0.4704314             -12.8011
        15        2.0000           -0.4504712             -12.2579
        16        2.0000           -0.4477125             -12.1829
        17        2.0000           -0.4444629             -12.0944
        18        2.0000           -0.4433401             -12.0639
        19        2.0000           -0.4103583             -11.1664
        20        2.0000           -0.4074325             -11.0868
        21        2.0000           -0.4046754             -11.0118
        22        2.0000           -0.4005767             -10.9002
        23        2.0000           -0.3646836              -9.9235
        24        2.0000           -0.3353161              -9.1244
        25        2.0000           -0.3193735              -8.6906 (HOMO)
        26                         -0.1868586              -5.0847 (LUMO)
        27                         -0.1677275              -4.5641
        28                         -0.0519788              -1.4144
        29                          0.1149138               3.1270
        30                          0.1295794               3.5260
        31                          0.1483946               4.0380
        32                          0.1751131               4.7651
        33                          0.1924087               5.2357
        34                          0.2025679               5.5122
        35                          0.2190293               5.9601
        36                          0.2264641               6.1624
       ...                                ...                  ...
        45                          0.7010721              19.0771
      -------------------------------------------------------------
                  HL-Gap            0.1325150 Eh            3.6059 eV

     #   Z          covCN         q      C6AA      α(0)
     1   6 C        2.923    -0.082    30.054     8.990
     2   6 C        2.914    -0.050    29.230     8.866
     3   1 H        0.925     0.005     2.967     2.694
     4   6 C        3.758    -0.110    22.648     6.785
     5   6 C        2.918    -0.099    30.495     9.056
     6   1 H        0.925    -0.001     3.068     2.739
     7   6 C        2.834     0.158    24.580     8.125
     8   1 H        0.925    -0.012     3.266     2.826
     9   6 C        2.925    -0.100    30.525     9.060
    10   8 O        0.858    -0.722    29.308     7.258
    11   6 C        2.962    -0.008    28.214     8.712
    12   1 H        0.925     0.042     2.426     2.436
    13   1 H        0.925     0.036     2.501     2.473
    14   1 H        0.924     0.042     2.428     2.437
    15   1 H        0.925    -0.018     3.388     2.879
    16   8 O        1.603    -0.719    28.217     7.169
    17   1 H        0.799     0.301     0.720     1.333
    18   1 H        0.805     0.336     0.623     1.240

Wiberg/Mayer (AO) data.
largest (>0.10) Wiberg bond orders for each atom

     #   Z sym  total        # sym  WBO       # sym  WBO       # sym  WBO
 ---------------------------------------------------------------------------
     1   6 C    3.978 --     2 C    1.411    11 C    1.388     3 H    0.971
     2   6 C    3.990 --     5 C    1.487     1 C    1.411     6 H    0.971
     3   1 H    1.000 --     1 C    0.971
     4   6 C    3.997 --    11 C    1.018    12 H    0.985    13 H    0.982
                            14 H    0.973
     5   6 C    3.981 --     2 C    1.487     7 C    1.272     8 H    0.970
     6   1 H    1.000 --     2 C    0.971
     7   6 C    3.963 --    10 O    1.301     9 C    1.281     5 C    1.272
     8   1 H    0.999 --     5 C    0.970
     9   6 C    3.977 --    11 C    1.458     7 C    1.281    15 H    0.970
    10   8 O    1.718 --     7 C    1.301    17 H    0.103
    11   6 C    3.987 --     9 C    1.458     1 C    1.388     4 C    1.018
    12   1 H    0.998 --     4 C    0.985
    13   1 H    0.999 --     4 C    0.982
    14   1 H    0.998 --     4 C    0.973
    15   1 H    1.000 --     9 C    0.970
    16   8 O    1.741 --    18 H    0.887    17 H    0.800
    17   1 H    0.909 --    16 O    0.800    10 O    0.103
    18   1 H    0.887 --    16 O    0.887
 ---------------------------------------------------------------------------

molecular dipole:
                 x           y           z       tot (Debye)
 q only:        6.661       6.788      -3.643
   full:        6.612       6.696      -3.772      25.770

 projected vibrational frequencies (cm⁻¹)
eigval :       -0.00     0.00     0.00     0.00     0.00     0.00
eigval :      -72.31    14.26    35.49    67.95   196.02   203.52
eigval :      206.29   325.85   407.62   473.18   496.29   531.96
eigval :      545.99   551.63   655.87   746.63   766.70   828.90
eigval :      851.09   863.30   909.44   964.69   980.11  1025.26
eigval :     1030.94  1131.16  1183.98  1195.24  1271.18  1303.71
eigval :     1345.75  1392.12  1447.72  1481.98  1484.90  1493.73
eigval :     1534.88  1561.52  1604.66  2650.31  2986.54  3006.78
eigval :     3011.60  3017.78  3028.34  3035.86  3052.45  3618.25

   temp. (K)  partition function   enthalpy   heat capacity  entropy
                                   cal/mol     cal/K/mol   cal/K/mol   J/K/mol
 298.15  VIB  0.395E+04             4290.446     26.373     26.843
         ROT  0.587E+06              888.752      2.981     29.376
         INT  0.232E+10             5179.198     29.354     56.219
         TR   0.135E+28             1481.254      4.968     40.368
         TOT                        6660.4519    34.3225    96.5873   404.1211

       T/K    H(0)-H(T)+PV         H(T)/Eh          T*S/Eh         G(T)/Eh
   ------------------------------------------------------------------------
    298.15    0.106141E-01    0.148488E+00    0.458917E-01    0.102596E+00
   ------------------------------------------------------------------------

         :::::::::::::::::::::::::::::::::::::::::::::::::::::
         ::                  THERMODYNAMIC                  ::
         :::::::::::::::::::::::::::::::::::::::::::::::::::::
         :: total free energy         -27.900266161688 Eh   ::
         ::.................................................::
         :: total energy              -28.002862009862 Eh   ::
         :: zero point energy           0.137873463541 Eh   ::
         :: G(RRHO) w/o ZPVE           -0.035277615367 Eh   ::
         :: G(RRHO) contrib.            0.102595848174 Eh   ::
         :::::::::::::::::::::::::::::::::::::::::::::::::::::

           -------------------------------------------------
          | TOTAL ENERGY              -28.002862009862 Eh   |
          | TOTAL ENTHALPY            -27.854374440589 Eh   |
          | TOTAL FREE ENERGY         -27.900266161688 Eh   |
          | GRADIENT NORM               0.000745247664 Eh/α |
          | HOMO-LUMO GAP               3.605915701175 eV   |
           -------------------------------------------------

 * finished run on 2025/10/18 at 03:03:59.823
normal termination of xtb
