   * xtb version 6.7.1 (edcfbbe) compiled by 'albert@albert-system' on 2024-07-22

   ID    Z sym.   atoms
    1    6 C      1, 2, 4, 5, 7, 9, 11
    2    1 H      3, 6, 8, 12-15, 17, 18
    3    8 O      10, 16

          program call               : xtb tb_lite_results_shiftn0p15_gp570_b0_rot180_complex.xyz --ohess --chrg -1 --alpb water
      * Solvation model:               ALPB
        Solvent                        water
        Solvent mass                       1.8000E+01 g/mol
          :  Hamiltonian                  GFN2-xTB          :
 * total energy  :   -27.9967427 Eh     change       -0.8459082E-09 Eh
 * total energy  :   -28.0007791 Eh     change       -0.4036385E-02 Eh
 * total energy  :   -28.0011682 Eh     change       -0.3891722E-03 Eh
 * total energy  :   -28.0012836 Eh     change       -0.1154063E-03 Eh
 * total energy  :   -28.0014675 Eh     change       -0.1838650E-03 Eh
 * total energy  :   -28.0015994 Eh     change       -0.1318743E-03 Eh
 * total energy  :   -28.0016883 Eh     change       -0.8889040E-04 Eh
 * total energy  :   -28.0017652 Eh     change       -0.7688832E-04 Eh
 * total energy  :   -28.0017093 Eh     change        0.5583468E-04 Eh
 * total energy  :   -28.0018785 Eh     change       -0.1692095E-03 Eh
 * total energy  :   -28.0027771 Eh     change       -0.1825853E-04 Eh
 * total energy  :   -28.0027982 Eh     change       -0.2112530E-04 Eh
 * total energy  :   -28.0028074 Eh     change       -0.9201318E-05 Eh
 * total energy  :   -28.0028269 Eh     change       -0.1952416E-04 Eh
 * total energy  :   -28.0028361 Eh     change       -0.9113109E-05 Eh
 * total energy  :   -28.0028448 Eh     change       -0.8711932E-05 Eh
 * total energy  :   -28.0028543 Eh     change       -0.9492574E-05 Eh
 * total energy  :   -28.0028590 Eh     change       -0.4727930E-05 Eh
 * total energy  :   -28.0028624 Eh     change       -0.3368706E-05 Eh
   *** GEOMETRY OPTIMIZATION CONVERGED AFTER 42 ITERATIONS ***

 final structure:
================
18
 xtb: 6.7.1 (edcfbbe)
C           -5.33837724696480       -6.31996132139050        2.90375012461589
C           -5.15402461942703       -5.07736165148335        3.48922077166584
H           -6.09417959860237       -6.99304157980358        3.28315923362745
C           -4.72288727306620       -8.03692871711306        1.17132943215554
C           -4.19782856806259       -4.20791760743089        3.01976663665687
H           -5.77035568719161       -4.78269194950672        4.33016410650549
C           -3.37017710243601       -4.54861287206534        1.92358505010913
H           -4.05412849385053       -3.23524429855444        3.47731859919664
C           -3.58527611178155       -5.82229724768117        1.35141074724287
O           -2.46655556588725       -3.72764901017782        1.48099645441161
C           -4.54613777861719       -6.69429230273137        1.82489922989214
H           -5.53099544550690       -8.59091806324569        1.64247826694661
H           -4.94790431974347       -7.91344087998432        0.11296177012337
H           -3.80428853509989       -8.61705197060389        1.25008838953068
H           -2.96435321423203       -6.10345692113747        0.50832542808810
O           -1.00740587581445       -4.47101198695651       -0.56339335815180
H           -1.60276824165065       -4.19442020376243        0.19779975836580
H           -0.13992274657742       -4.12773699814671       -0.32701962738850

          :  Hamiltonian                  GFN2-xTB          :
         :: gradient norm              0.000956954038 Eh/a0 ::
         :: HOMO-LUMO gap              3.601719019656 eV    ::
         :: SCC energy               -28.385001296298 Eh    ::
         :: -> dispersion             -0.013910284256 Eh    ::
         :: -> Gsolv                  -0.102761431955 Eh    ::
         :: repulsion energy           0.382138933067 Eh    ::

    * Orbital Energies and Occupations

         #    Occupation            Energy/Eh            Energy/eV
      -------------------------------------------------------------
         1        2.0000           -0.6453516             -17.5609
       ...           ...                  ...                  ...
        13        2.0000           -0.4759905             -12.9524
        14        2.0000           -0.4685922             -12.7510
        15        2.0000           -0.4503480             -12.2546
        16        2.0000           -0.4494173             -12.2293
        17        2.0000           -0.4454634             -12.1217
        18        2.0000           -0.4412269             -12.0064
        19        2.0000           -0.4101772             -11.1615
        20        2.0000           -0.4075899             -11.0911
        21        2.0000           -0.4050573             -11.0222
        22        2.0000           -0.4001542             -10.8888
        23        2.0000           -0.3643741              -9.9151
        24        2.0000           -0.3351562              -9.1201
        25        2.0000           -0.3193365              -8.6896 (HOMO)
        26                         -0.1869757              -5.0879 (LUMO)
        27                         -0.1673975              -4.5551
        28                         -0.0518849              -1.4119
        29                          0.1199552               3.2641
        30                          0.1273755               3.4661
        31                          0.1437634               3.9120
        32                          0.1793779               4.8811
        33                          0.1920114               5.2249
        34                          0.2032541               5.5308
        35                          0.2200679               5.9884
        36                          0.2289211               6.2293
       ...                                ...                  ...
        45                          0.7019576              19.1012
      -------------------------------------------------------------
                  HL-Gap            0.1323608 Eh            3.6017 eV

     #   Z          covCN         q      C6AA      α(0)
     1   6 C        2.923    -0.082    30.050     8.990
     2   6 C        2.914    -0.050    29.253     8.869
     3   1 H        0.926     0.005     2.969     2.695
     4   6 C        3.758    -0.109    22.641     6.784
     5   6 C        2.919    -0.096    30.417     9.044
     6   1 H        0.925     0.001     3.045     2.729
     7   6 C        2.834     0.158    24.580     8.124
     8   1 H        0.925    -0.023     3.479     2.917
     9   6 C        2.925    -0.103    30.606     9.072
    10   8 O        0.858    -0.722    29.321     7.260
    11   6 C        2.963    -0.007    28.197     8.710
    12   1 H        0.925     0.041     2.435     2.440
    13   1 H        0.925     0.038     2.477     2.461
    14   1 H        0.925     0.039     2.465     2.455
    15   1 H        0.925    -0.008     3.193     2.794
    16   8 O        1.603    -0.718    28.186     7.165
    17   1 H        0.799     0.301     0.718     1.332
    18   1 H        0.805     0.335     0.624     1.240

Wiberg/Mayer (AO) data.
largest (>0.10) Wiberg bond orders for each atom

     #   Z sym  total        # sym  WBO       # sym  WBO       # sym  WBO
 ---------------------------------------------------------------------------
     1   6 C    3.978 --     2 C    1.410    11 C    1.388     3 H    0.970
     2   6 C    3.990 --     5 C    1.487     1 C    1.410     6 H    0.971
     3   1 H    1.000 --     1 C    0.970
     4   6 C    3.998 --    11 C    1.018    12 H    0.986    13 H    0.977
                            14 H    0.976
     5   6 C    3.979 --     2 C    1.487     7 C    1.270     8 H    0.972
     6   1 H    1.000 --     2 C    0.971
     7   6 C    3.963 --    10 O    1.301     9 C    1.283     5 C    1.270
     8   1 H    0.999 --     5 C    0.972
     9   6 C    3.979 --    11 C    1.458     7 C    1.283    15 H    0.969
    10   8 O    1.717 --     7 C    1.301    17 H    0.102
    11   6 C    3.987 --     9 C    1.458     1 C    1.388     4 C    1.018
    12   1 H    0.998 --     4 C    0.986
    13   1 H    0.998 --     4 C    0.977
    14   1 H    0.998 --     4 C    0.976
    15   1 H    1.000 --     9 C    0.969
    16   8 O    1.742 --    18 H    0.887    17 H    0.802
    17   1 H    0.909 --    16 O    0.802    10 O    0.102
    18   1 H    0.888 --    16 O    0.887
 ---------------------------------------------------------------------------

molecular dipole:
                 x           y           z       tot (Debye)
 q only:        5.628       8.189      -2.529
   full:        5.619       8.266      -2.332      26.086

 projected vibrational frequencies (cm⁻¹)
eigval :       -0.00    -0.00    -0.00    -0.00     0.00     0.00
eigval :      -57.71    33.30    64.51   191.14   195.90   206.19
eigval :      217.39   319.11   407.03   468.56   511.61   523.73
eigval :      545.59   561.19   655.05   749.67   764.76   827.86
eigval :      859.41   870.25   904.04   963.72   980.69  1028.59
eigval :     1029.86  1123.79  1185.00  1197.78  1272.54  1303.36
eigval :     1348.32  1393.17  1447.91  1479.26  1485.22  1494.98
eigval :     1541.29  1562.49  1605.66  2675.91  2996.01  3004.19
eigval :     3011.38  3021.65  3031.27  3032.71  3054.91  3611.98

   temp. (K)  partition function   enthalpy   heat capacity  entropy
                                   cal/mol     cal/K/mol   cal/K/mol   J/K/mol
 298.15  VIB   468.                 4072.090     27.101     24.205
         ROT  0.638E+06              888.752      2.981     29.544
         INT  0.299E+09             4960.843     30.082     53.749
         TR   0.135E+28             1481.254      4.968     40.368
         TOT                        6442.0968    35.0501    94.1177   393.7885

       T/K    H(0)-H(T)+PV         H(T)/Eh          T*S/Eh         G(T)/Eh
   ------------------------------------------------------------------------
    298.15    0.102661E-01    0.148688E+00    0.447184E-01    0.103969E+00
   ------------------------------------------------------------------------

         :::::::::::::::::::::::::::::::::::::::::::::::::::::
         ::                  THERMODYNAMIC                  ::
         :::::::::::::::::::::::::::::::::::::::::::::::::::::
         :: total free energy         -27.898893216568 Eh   ::
         ::.................................................::
         :: total energy              -28.002862362676 Eh   ::
         :: zero point energy           0.138421367594 Eh   ::
         :: G(RRHO) w/o ZPVE           -0.034452221486 Eh   ::
         :: G(RRHO) contrib.            0.103969146107 Eh   ::
         :::::::::::::::::::::::::::::::::::::::::::::::::::::

           -------------------------------------------------
          | TOTAL ENERGY              -28.002862362676 Eh   |
          | TOTAL ENTHALPY            -27.854174860431 Eh   |
          | TOTAL FREE ENERGY         -27.898893216568 Eh   |
          | GRADIENT NORM               0.000956758599 Eh/α |
          | HOMO-LUMO GAP               3.601721258483 eV   |
           -------------------------------------------------

 * finished run on 2025/10/18 at 03:04:03.460
normal termination of xtb
