   * xtb version 6.7.1 (edcfbbe) compiled by 'albert@albert-system' on 2024-07-22

   ID    Z sym.   atoms
    1    6 C      1, 2, 4, 5, 7, 9, 11
    2    1 H      3, 6, 8, 12-15, 17, 18
    3    8 O      10, 16

          program call               : xtb tb_lite_results_shiftn0p1_gp552_b0_rot180_complex.xyz --ohess --chrg -1 --alpb water
      * Solvation model:               ALPB
        Solvent                        water
        Solvent mass                       1.8000E+01 g/mol
          :  Hamiltonian                  GFN2-xTB          :
 * total energy  :   -27.9965041 Eh     change       -0.5226148E-09 Eh
 * total energy  :   -28.0003845 Eh     change       -0.3880397E-02 Eh
 * total energy  :   -28.0008577 Eh     change       -0.4732316E-03 Eh
 * total energy  :   -28.0010369 Eh     change       -0.1791195E-03 Eh
 * total energy  :   -28.0011806 Eh     change       -0.1437330E-03 Eh
 * total energy  :   -28.0011783 Eh     change        0.2286307E-05 Eh
 * total energy  :   -28.0013092 Eh     change       -0.1308946E-03 Eh
 * total energy  :   -28.0013534 Eh     change       -0.4420321E-04 Eh
 * total energy  :   -28.0014170 Eh     change       -0.6357229E-04 Eh
 * total energy  :   -28.0015087 Eh     change       -0.9177007E-04 Eh
 * total energy  :   -28.0029904 Eh     change       -0.7238290E-05 Eh
 * total energy  :   -28.0030024 Eh     change       -0.1200910E-04 Eh
 * total energy  :   -28.0030065 Eh     change       -0.4102386E-05 Eh
 * total energy  :   -28.0030141 Eh     change       -0.7623702E-05 Eh
 * total energy  :   -28.0030179 Eh     change       -0.3816132E-05 Eh
 * total energy  :   -28.0030248 Eh     change       -0.6845109E-05 Eh
 * total energy  :   -28.0030114 Eh     change        0.1341517E-04 Eh
 * total energy  :   -28.0030265 Eh     change       -0.1510748E-04 Eh
 * total energy  :   -28.0030314 Eh     change       -0.4971519E-05 Eh
   *** GEOMETRY OPTIMIZATION CONVERGED AFTER 68 ITERATIONS ***

 final structure:
================
18
 xtb: 6.7.1 (edcfbbe)
C           -4.92276691785314       -6.54571560289031        3.14135708336776
C           -4.83203872403716       -5.29506412514660        3.72911479391343
H           -5.29762652881552       -7.38849263165011        3.70521212474621
C           -4.60852798086635       -8.07057089357642        1.17545542415426
C           -4.35691984390034       -4.21049743275559        3.02695141523778
H           -5.14012008536471       -5.16210650553464        4.75951723172336
C           -3.94547957483870       -4.33687141062725        1.68073680406820
H           -4.28891400044317       -3.23349545948981        3.49072974628850
C           -4.05321500894574       -5.62726679205034        1.11106900571398
O           -3.49163636238415       -3.33481243243351        0.99017904803117
C           -4.52919118086589       -6.71259067258185        1.81675479890486
H           -5.54646292792151       -8.55853075097471        1.43147455148453
H           -4.53328660603425       -7.98787471332661        0.09423865344293
H           -3.79155730251167       -8.69816772961192        1.53060144662872
H           -3.74300683556669       -5.73769039697733        0.07700158283768
O           -3.32344513244531       -0.98998630112768        2.13715212109261
H           -3.40722976670840       -1.90409236054927        1.72532080172964
H           -2.89319372362004       -0.45893932390329        1.45944408378886

          :  Hamiltonian                  GFN2-xTB          :
         :: gradient norm              0.000378598588 Eh/a0 ::
         :: HOMO-LUMO gap              3.621255095796 eV    ::
         :: SCC energy               -28.384903751541 Eh    ::
         :: -> dispersion             -0.013892937989 Eh    ::
         :: -> Gsolv                  -0.103270742749 Eh    ::
         :: repulsion energy           0.381872320126 Eh    ::

    * Orbital Energies and Occupations

         #    Occupation            Energy/Eh            Energy/eV
      -------------------------------------------------------------
         1        2.0000           -0.6454085             -17.5625
       ...           ...                  ...                  ...
        13        2.0000           -0.4769447             -12.9783
        14        2.0000           -0.4708666             -12.8129
        15        2.0000           -0.4505530             -12.2602
        16        2.0000           -0.4480374             -12.1917
        17        2.0000           -0.4441174             -12.0850
        18        2.0000           -0.4430440             -12.0558
        19        2.0000           -0.4101901             -11.1618
        20        2.0000           -0.4069599             -11.0739
        21        2.0000           -0.4051661             -11.0251
        22        2.0000           -0.4004751             -10.8975
        23        2.0000           -0.3650974              -9.9348
        24        2.0000           -0.3353788              -9.1261
        25        2.0000           -0.3191888              -8.6856 (HOMO)
        26                         -0.1861101              -5.0643 (LUMO)
        27                         -0.1683095              -4.5799
        28                         -0.0518070              -1.4097
        29                          0.1149148               3.1270
        30                          0.1307700               3.5584
        31                          0.1478395               4.0229
        32                          0.1733198               4.7163
        33                          0.1929671               5.2509
        34                          0.2051611               5.5827
        35                          0.2183350               5.9412
        36                          0.2270472               6.1783
       ...                                ...                  ...
        45                          0.7022829              19.1101
      -------------------------------------------------------------
                  HL-Gap            0.1330787 Eh            3.6213 eV

     #   Z          covCN         q      C6AA      α(0)
     1   6 C        2.923    -0.083    30.072     8.993
     2   6 C        2.914    -0.049    29.225     8.865
     3   1 H        0.926     0.006     2.951     2.687
     4   6 C        3.758    -0.110    22.655     6.786
     5   6 C        2.918    -0.099    30.506     9.057
     6   1 H        0.925    -0.001     3.072     2.741
     7   6 C        2.834     0.158    24.580     8.125
     8   1 H        0.925    -0.013     3.292     2.837
     9   6 C        2.925    -0.099    30.498     9.056
    10   8 O        0.858    -0.721    29.286     7.256
    11   6 C        2.962    -0.008    28.213     8.712
    12   1 H        0.925     0.043     2.403     2.424
    13   1 H        0.925     0.033     2.547     2.496
    14   1 H        0.925     0.044     2.397     2.421
    15   1 H        0.925    -0.018     3.395     2.881
    16   8 O        1.603    -0.719    28.235     7.171
    17   1 H        0.799     0.301     0.720     1.333
    18   1 H        0.805     0.336     0.622     1.239

Wiberg/Mayer (AO) data.
largest (>0.10) Wiberg bond orders for each atom

     #   Z sym  total        # sym  WBO       # sym  WBO       # sym  WBO
 ---------------------------------------------------------------------------
     1   6 C    3.978 --     2 C    1.418    11 C    1.380     3 H    0.971
     2   6 C    3.990 --     5 C    1.481     1 C    1.418     6 H    0.971
     3   1 H    1.000 --     1 C    0.971
     4   6 C    3.998 --    11 C    1.019    13 H    0.986    12 H    0.980
                            14 H    0.973
     5   6 C    3.980 --     2 C    1.481     7 C    1.276     8 H    0.970
     6   1 H    1.000 --     2 C    0.971
     7   6 C    3.963 --    10 O    1.301     5 C    1.276     9 C    1.275
     8   1 H    0.999 --     5 C    0.970
     9   6 C    3.977 --    11 C    1.466     7 C    1.275    15 H    0.969
    10   8 O    1.719 --     7 C    1.301    17 H    0.104
    11   6 C    3.987 --     9 C    1.466     1 C    1.380     4 C    1.019
    12   1 H    0.998 --     4 C    0.980
    13   1 H    0.999 --     4 C    0.986
    14   1 H    0.998 --     4 C    0.973
    15   1 H    1.000 --     9 C    0.969
    16   8 O    1.740 --    18 H    0.886    17 H    0.800
    17   1 H    0.909 --    16 O    0.800    10 O    0.104
    18   1 H    0.887 --    16 O    0.886
 ---------------------------------------------------------------------------

molecular dipole:
                 x           y           z       tot (Debye)
 q only:        7.278       6.641      -3.535
   full:        7.310       6.539      -3.646      26.595

 projected vibrational frequencies (cm⁻¹)
eigval :       -0.00    -0.00    -0.00     0.00     0.00     0.00
eigval :      -48.79    37.98    64.06   101.39   198.69   207.25
eigval :      211.38   325.71   406.92   475.58   493.63   533.38
eigval :      545.52   565.96   656.57   746.99   767.23   831.04
eigval :      860.10   884.23   908.85   968.48   979.34  1022.17
eigval :     1029.37  1129.94  1184.30  1195.25  1270.57  1305.48
eigval :     1343.20  1391.43  1449.66  1484.04  1484.83  1493.12
eigval :     1542.84  1559.38  1606.99  2660.67  2993.08  3005.20
eigval :     3011.54  3020.87  3033.97  3036.00  3054.75  3612.23

   temp. (K)  partition function   enthalpy   heat capacity  entropy
                                   cal/mol     cal/K/mol   cal/K/mol   J/K/mol
 298.15  VIB   645.                 4157.522     27.177     25.331
         ROT  0.589E+06              888.752      2.981     29.383
         INT  0.380E+09             5046.274     30.158     54.714
         TR   0.135E+28             1481.254      4.968     40.368
         TOT                        6527.5278    35.1262    95.0821   397.8234

       T/K    H(0)-H(T)+PV         H(T)/Eh          T*S/Eh         G(T)/Eh
   ------------------------------------------------------------------------
    298.15    0.104023E-01    0.148667E+00    0.451766E-01    0.103490E+00
   ------------------------------------------------------------------------

         :::::::::::::::::::::::::::::::::::::::::::::::::::::
         ::                  THERMODYNAMIC                  ::
         :::::::::::::::::::::::::::::::::::::::::::::::::::::
         :: total free energy         -27.899541034719 Eh   ::
         ::.................................................::
         :: total energy              -28.003031430200 Eh   ::
         :: zero point energy           0.138264676842 Eh   ::
         :: G(RRHO) w/o ZPVE           -0.034774281361 Eh   ::
         :: G(RRHO) contrib.            0.103490395481 Eh   ::
         :::::::::::::::::::::::::::::::::::::::::::::::::::::

           -------------------------------------------------
          | TOTAL ENERGY              -28.003031430200 Eh   |
          | TOTAL ENTHALPY            -27.854364475626 Eh   |
          | TOTAL FREE ENERGY         -27.899541034719 Eh   |
          | GRADIENT NORM               0.000378582235 Eh/α |
          | HOMO-LUMO GAP               3.621256202627 eV   |
           -------------------------------------------------

 * finished run on 2025/10/18 at 03:04:10.132
normal termination of xtb
