   * xtb version 6.7.1 (edcfbbe) compiled by 'albert@albert-system' on 2024-07-22

   ID    Z sym.   atoms
    1    6 C      1, 2, 4, 5, 7, 9, 11
    2    1 H      3, 6, 8, 12-15, 17, 18
    3    8 O      10, 16

          program call               : xtb tb_lite_results_shiftn0p2_gp552_b0_rot180_complex.xyz --ohess --chrg -1 --alpb water
      * Solvation model:               ALPB
        Solvent                        water
        Solvent mass                       1.8000E+01 g/mol
          :  Hamiltonian                  GFN2-xTB          :
 * total energy  :   -27.9961199 Eh     change       -0.9432775E-09 Eh
 * total energy  :   -28.0006050 Eh     change       -0.4485129E-02 Eh
 * total energy  :   -28.0010014 Eh     change       -0.3963806E-03 Eh
 * total energy  :   -28.0010856 Eh     change       -0.8418940E-04 Eh
 * total energy  :   -28.0011789 Eh     change       -0.9329798E-04 Eh
 * total energy  :   -28.0012868 Eh     change       -0.1079577E-03 Eh
 * total energy  :   -28.0013718 Eh     change       -0.8497918E-04 Eh
 * total energy  :   -28.0013632 Eh     change        0.8637729E-05 Eh
 * total energy  :   -28.0014870 Eh     change       -0.1238251E-03 Eh
 * total energy  :   -28.0015385 Eh     change       -0.5148750E-04 Eh
 * total energy  :   -28.0027831 Eh     change       -0.1341043E-04 Eh
 * total energy  :   -28.0027903 Eh     change       -0.7141149E-05 Eh
 * total energy  :   -28.0028055 Eh     change       -0.1525211E-04 Eh
 * total energy  :   -28.0028252 Eh     change       -0.1969306E-04 Eh
 * total energy  :   -28.0023359 Eh     change        0.4893090E-03 Eh
 * total energy  :   -28.0028206 Eh     change       -0.4846797E-03 Eh
 * total energy  :   -28.0028421 Eh     change       -0.2150905E-04 Eh
 * total energy  :   -28.0028526 Eh     change       -0.1055637E-04 Eh
 * total energy  :   -28.0028561 Eh     change       -0.3476051E-05 Eh
   *** GEOMETRY OPTIMIZATION CONVERGED AFTER 41 ITERATIONS ***

 final structure:
================
18
 xtb: 6.7.1 (edcfbbe)
C           -5.01764267689710       -6.50958722509437        3.11635138601703
C           -4.91265212713459       -5.24917876722292        3.68323411511392
H           -5.47826075629807       -7.31757651111175        3.66762379026116
C           -4.61228355740617       -8.09169558090451        1.20464506524454
C           -4.33104114002494       -4.20701008974508        2.99902927243405
H           -5.29491918748511       -5.07679410016200        4.68244034905825
C           -3.81920128814041       -4.38646423496104        1.69281329780025
H           -4.25095076308156       -3.22329628149988        3.44607645635255
C           -3.94338959608117       -5.68345142100843        1.14509844518525
O           -3.26708993753203       -3.42180201874430        1.02025933635091
C           -4.52764177818905       -6.72810936854336        1.83382195994960
H           -5.33939233407474       -8.70952153729746        1.72584913341726
H           -4.89655059751332       -8.01072991170745        0.15740676068779
H           -3.64082304039969       -8.58389394860957        1.25253284678013
H           -3.55688513024158       -5.83787735998262        0.14289902337526
O           -3.19245532772379       -1.05444753958509        2.13225919698820
H           -3.19721191414918       -1.97961169756789        1.73646715974606
H           -3.37069266018189       -0.47125515199862        1.38796843182297

          :  Hamiltonian                  GFN2-xTB          :
         :: gradient norm              0.000403972059 Eh/a0 ::
         :: HOMO-LUMO gap              3.606637044525 eV    ::
         :: SCC energy               -28.384565479490 Eh    ::
         :: -> dispersion             -0.013911721950 Eh    ::
         :: -> Gsolv                  -0.103089632344 Eh    ::
         :: repulsion energy           0.381709355799 Eh    ::

    * Orbital Energies and Occupations

         #    Occupation            Energy/Eh            Energy/eV
      -------------------------------------------------------------
         1        2.0000           -0.6454697             -17.5641
       ...           ...                  ...                  ...
        13        2.0000           -0.4769792             -12.9793
        14        2.0000           -0.4704136             -12.8006
        15        2.0000           -0.4504676             -12.2578
        16        2.0000           -0.4476951             -12.1824
        17        2.0000           -0.4444918             -12.0952
        18        2.0000           -0.4433396             -12.0639
        19        2.0000           -0.4103201             -11.1654
        20        2.0000           -0.4074502             -11.0873
        21        2.0000           -0.4046182             -11.0102
        22        2.0000           -0.4005646             -10.8999
        23        2.0000           -0.3646841              -9.9236
        24        2.0000           -0.3353126              -9.1243
        25        2.0000           -0.3193866              -8.6910 (HOMO)
        26                         -0.1868452              -5.0843 (LUMO)
        27                         -0.1677076              -4.5636
        28                         -0.0519430              -1.4134
        29                          0.1149458               3.1278
        30                          0.1295530               3.5253
        31                          0.1485182               4.0414
        32                          0.1752749               4.7695
        33                          0.1926977               5.2436
        34                          0.2027662               5.5175
        35                          0.2191881               5.9644
        36                          0.2266279               6.1669
       ...                                ...                  ...
        45                          0.7012225              19.0812
      -------------------------------------------------------------
                  HL-Gap            0.1325414 Eh            3.6066 eV

     #   Z          covCN         q      C6AA      α(0)
     1   6 C        2.923    -0.082    30.053     8.990
     2   6 C        2.914    -0.050    29.230     8.866
     3   1 H        0.926     0.005     2.967     2.694
     4   6 C        3.758    -0.110    22.649     6.785
     5   6 C        2.918    -0.099    30.495     9.056
     6   1 H        0.925    -0.001     3.068     2.739
     7   6 C        2.834     0.158    24.580     8.124
     8   1 H        0.925    -0.011     3.263     2.825
     9   6 C        2.925    -0.100    30.525     9.061
    10   8 O        0.858    -0.722    29.309     7.258
    11   6 C        2.962    -0.008    28.214     8.712
    12   1 H        0.925     0.042     2.427     2.436
    13   1 H        0.925     0.036     2.499     2.472
    14   1 H        0.925     0.041     2.429     2.437
    15   1 H        0.925    -0.018     3.388     2.878
    16   8 O        1.603    -0.719    28.223     7.170
    17   1 H        0.799     0.301     0.719     1.332
    18   1 H        0.805     0.335     0.623     1.240

Wiberg/Mayer (AO) data.
largest (>0.10) Wiberg bond orders for each atom

     #   Z sym  total        # sym  WBO       # sym  WBO       # sym  WBO
 ---------------------------------------------------------------------------
     1   6 C    3.978 --     2 C    1.411    11 C    1.388     3 H    0.971
     2   6 C    3.990 --     5 C    1.487     1 C    1.411     6 H    0.971
     3   1 H    1.000 --     1 C    0.971
     4   6 C    3.997 --    11 C    1.018    12 H    0.985    13 H    0.981
                            14 H    0.973
     5   6 C    3.981 --     2 C    1.487     7 C    1.272     8 H    0.970
     6   1 H    1.000 --     2 C    0.971
     7   6 C    3.963 --    10 O    1.300     9 C    1.281     5 C    1.272
     8   1 H    0.999 --     5 C    0.970
     9   6 C    3.977 --    11 C    1.458     7 C    1.281    15 H    0.970
    10   8 O    1.718 --     7 C    1.300    17 H    0.104
    11   6 C    3.987 --     9 C    1.458     1 C    1.388     4 C    1.018
    12   1 H    0.998 --     4 C    0.985
    13   1 H    0.999 --     4 C    0.981
    14   1 H    0.998 --     4 C    0.973
    15   1 H    1.000 --     9 C    0.970
    16   8 O    1.741 --    18 H    0.887    17 H    0.800
    17   1 H    0.909 --    16 O    0.800    10 O    0.104
    18   1 H    0.887 --    16 O    0.887
 ---------------------------------------------------------------------------

molecular dipole:
                 x           y           z       tot (Debye)
 q only:        6.639       6.800      -3.602
   full:        6.587       6.706      -3.729      25.705

 projected vibrational frequencies (cm⁻¹)
eigval :       -0.00    -0.00    -0.00     0.00     0.00     0.00
eigval :      -26.74    33.81    66.61    91.91   196.26   202.37
eigval :      210.43   327.38   407.22   475.66   496.35   534.72
eigval :      546.78   561.65   655.95   747.06   766.71   829.18
eigval :      861.66   878.56   908.81   964.47   980.16  1025.12
eigval :     1030.27  1130.83  1183.91  1195.24  1271.17  1303.92
eigval :     1345.95  1391.67  1447.92  1481.56  1484.89  1493.70
eigval :     1541.77  1561.84  1604.97  2657.66  2989.26  3007.46
eigval :     3011.91  3019.33  3030.63  3036.15  3053.28  3615.94

   temp. (K)  partition function   enthalpy   heat capacity  entropy
                                   cal/mol     cal/K/mol   cal/K/mol   J/K/mol
 298.15  VIB   766.                 4178.379     27.128     25.546
         ROT  0.586E+06              888.752      2.981     29.374
         INT  0.449E+09             5067.131     30.108     54.920
         TR   0.135E+28             1481.254      4.968     40.368
         TOT                        6548.3853    35.0766    95.2886   398.6874

       T/K    H(0)-H(T)+PV         H(T)/Eh          T*S/Eh         G(T)/Eh
   ------------------------------------------------------------------------
    298.15    0.104355E-01    0.148629E+00    0.452747E-01    0.103355E+00
   ------------------------------------------------------------------------

         :::::::::::::::::::::::::::::::::::::::::::::::::::::
         ::                  THERMODYNAMIC                  ::
         :::::::::::::::::::::::::::::::::::::::::::::::::::::
         :: total free energy         -27.899501583466 Eh   ::
         ::.................................................::
         :: total energy              -28.002856123157 Eh   ::
         :: zero point energy           0.138193701192 Eh   ::
         :: G(RRHO) w/o ZPVE           -0.034839161500 Eh   ::
         :: G(RRHO) contrib.            0.103354539691 Eh   ::
         :::::::::::::::::::::::::::::::::::::::::::::::::::::

           -------------------------------------------------
          | TOTAL ENERGY              -28.002856123157 Eh   |
          | TOTAL ENTHALPY            -27.854226905797 Eh   |
          | TOTAL FREE ENERGY         -27.899501583466 Eh   |
          | GRADIENT NORM               0.000404608049 Eh/α |
          | HOMO-LUMO GAP               3.606634676010 eV   |
           -------------------------------------------------

 * finished run on 2025/10/18 at 03:04:06.921
normal termination of xtb
