                         Program Version 5.0.4 -  RELEASE  -
|  1> !OPT PBE D3BJ def2-TZVP CPCM(water)
|  2> *xyz -1 1
|  3> C     -2.045161   -2.898364    1.589206
|  4> C     -2.447001   -2.182957    0.403473
|  5> C     -3.709638   -2.527801   -0.235859
|  6> C     -4.576855   -3.583800    0.325297
|  7> C     -4.102904   -4.312390    1.519659
|  8> C     -2.838997   -3.961847    2.153294
|  9> O     -6.400968   -4.983011    0.118710
| 10> O     -1.024626   -2.523924    2.198476
| 11> H     -1.838802   -1.374803    0.017187
| 12> H     -4.020558   -1.956261   -1.100183
| 13> N     -5.958695   -3.681951   -0.084222
| 14> H     -4.709355   -5.083641    1.975471
| 15> O     -6.051041   -3.399423   -1.441143
| 16> H     -2.519539   -4.465565    3.056803
| 17> *
| 18>
| 19>                          ****END OF INPUT****
 Total Charge           Charge          ....   -1
 Multiplicity           Mult            ....    1
 Number of Electrons    NEL             ....   72
Dispersion correction           -0.014743628
FINAL SINGLE POINT ENERGY      -511.085117735672
Dispersion correction            ... done
Dispersion correction           -0.014821053
FINAL SINGLE POINT ENERGY      -511.131548109461
Dispersion correction            ... done
Dispersion correction           -0.014967260
FINAL SINGLE POINT ENERGY      -511.163672901735
Dispersion correction            ... done
FINAL SINGLE POINT ENERGY      -511.182515232574
FINAL SINGLE POINT ENERGY      -511.191591214720
FINAL SINGLE POINT ENERGY      -511.193741901932
FINAL SINGLE POINT ENERGY      -511.193979014518
FINAL SINGLE POINT ENERGY      -511.193996235498
Dispersion correction            ... done
Dispersion correction           -0.015002970
FINAL SINGLE POINT ENERGY      -511.194012300448
Dispersion correction            ... done
Dispersion correction           -0.015003958
FINAL SINGLE POINT ENERGY      -511.194013509448
Dispersion correction            ... done
                    ***********************HURRAY********************

CARTESIAN COORDINATES (ANGSTROEM)
---------------------------------
  C     -2.047154   -2.867789    1.619997
  C     -2.524840   -2.197521    0.424711
  C     -3.708911   -2.539492   -0.185307
  C     -4.510094   -3.576687    0.347184
  C     -4.088550   -4.263779    1.509587
  C     -2.905107   -3.924966    2.122291
  O     -6.434736   -4.846238    0.209142
  O     -0.955029   -2.551389    2.186940
  H     -1.906169   -1.395918    0.014086
  H     -4.049021   -2.021746   -1.082218
  N     -5.729432   -3.925204   -0.279932
  H     -4.716745   -5.061565    1.905890
  O     -6.089531   -3.308472   -1.316568
  H     -2.578820   -4.454973    3.020365

 Multiplicity           Mult            ....    1
 Number of Electrons    NEL             ....   72
 Basis Dimension        Dim             ....  334

ORBITAL ENERGIES
----------------

  NO   OCC          E(Eh)            E(eV)
   0   2.0000     -18.749518      -510.2003
   1   2.0000     -18.749495      -510.1997
   2   2.0000     -18.693308      -508.6708
   3   2.0000     -14.175876      -385.7452
   4   2.0000      -9.929873      -270.2056
   5   2.0000      -9.915183      -269.8058
   6   2.0000      -9.889719      -269.1129
   7   2.0000      -9.889690      -269.1122
   8   2.0000      -9.873103      -268.6608
   9   2.0000      -9.873055      -268.6595
  10   2.0000      -1.090151       -29.6645
  11   2.0000      -0.923984       -25.1429
  12   2.0000      -0.895063       -24.3559
  13   2.0000      -0.777983       -21.1700
  14   2.0000      -0.697478       -18.9793
  15   2.0000      -0.673656       -18.3311
  16   2.0000      -0.587103       -15.9759
  17   2.0000      -0.541698       -14.7404
  18   2.0000      -0.505511       -13.7556
  19   2.0000      -0.479452       -13.0466
  20   2.0000      -0.453401       -12.3377
  21   2.0000      -0.442400       -12.0383
  22   2.0000      -0.401252       -10.9186
  23   2.0000      -0.399889       -10.8815
  24   2.0000      -0.377502       -10.2724
  25   2.0000      -0.369524       -10.0552
  26   2.0000      -0.344757        -9.3813
  27   2.0000      -0.328330        -8.9343
  28   2.0000      -0.299685        -8.1548
  29   2.0000      -0.283034        -7.7018
  30   2.0000      -0.255633        -6.9561
  31   2.0000      -0.249929        -6.8009
  32   2.0000      -0.231452        -6.2981
  33   2.0000      -0.220926        -6.0117
  34   2.0000      -0.184670        -5.0251
  35   2.0000      -0.176561        -4.8045
  36   0.0000      -0.097090        -2.6420
  37   0.0000      -0.036479        -0.9926
  38   0.0000       0.005507         0.1499
  39   0.0000       0.045624         1.2415
  40   0.0000       0.071552         1.9470

MULLIKEN ATOMIC CHARGES
-----------------------
   0 C :    0.230912
   1 C :   -0.226847
   2 C :   -0.213585
   3 C :    0.134799
   4 C :   -0.213302
   5 C :   -0.227532
   6 O :   -0.406046
   7 O :   -0.506431
   8 H :    0.105002
   9 H :    0.131166
  10 N :    0.361321
  11 H :    0.131365
  12 O :   -0.406039
  13 H :    0.105219
Sum of atomic charges:   -1.0000000

LOEWDIN ATOMIC CHARGES
----------------------
   0 C :   -0.396712
   1 C :   -0.150894
   2 C :   -0.135340
   3 C :   -0.229252
   4 C :   -0.135481
   5 C :   -0.150956
   6 O :   -0.140590
   7 O :   -0.079861
   8 H :    0.144919
   9 H :    0.153458
  10 N :   -0.037288
  11 H :    0.153448
  12 O :   -0.140417
  13 H :    0.144966

  Mayer bond orders larger than 0.100000
B(  0-C ,  1-C ) :   1.1341 B(  0-C ,  5-C ) :   1.1341 B(  0-C ,  7-O ) :   1.7935
B(  1-C ,  2-C ) :   1.5020 B(  1-C ,  8-H ) :   0.9757 B(  2-C ,  3-C ) :   1.2442
B(  2-C ,  9-H ) :   0.9355 B(  3-C ,  4-C ) :   1.2438 B(  3-C , 10-N ) :   1.1514
B(  4-C ,  5-C ) :   1.5024 B(  4-C , 11-H ) :   0.9353 B(  5-C , 13-H ) :   0.9756
B(  6-O , 10-N ) :   1.5164 B(  6-O , 12-O ) :   0.1428 B( 10-N , 12-O ) :   1.5163

Dispersion correction           -0.015003886
FINAL SINGLE POINT ENERGY      -511.194013917208

DIPOLE MOMENT
-------------
                                X             Y             Z
Electronic contribution:     -2.87354      -0.82287      -1.48125
Nuclear contribution   :      2.39615       0.68073       1.22847
                        -----------------------------------------
Total Dipole Moment    :     -0.47739      -0.14214      -0.25278
                        -----------------------------------------
Magnitude (a.u.)       :      0.55857
Magnitude (Debye)      :      1.41978

Rotational constants in cm-1:     0.130234     0.027828     0.022929
Rotational constants in MHz :  3904.307482   834.265742   687.388826

                             ****ORCA TERMINATED NORMALLY****
TOTAL RUN TIME: 0 days 0 hours 14 minutes 40 seconds 749 msec
