   * xtb version 6.7.1 (edcfbbe) compiled by 'albert@albert-system' on 2024-07-22

   ID    Z sym.   atoms
    1    6 C      1-3
    2    8 O      4, 12
    3    9 F      5-10
    4    1 H      11, 13, 14

          program call               : xtb tb_lite_results_shiftn0p1_gp157_b0_rot0_complex.xyz --ohess --chrg -1 --alpb water
      * Solvation model:               ALPB
        Solvent                        water
        Solvent mass                       1.8000E+01 g/mol
          :  Hamiltonian                  GFN2-xTB          :
 * total energy  :   -44.8100648 Eh     change       -0.2625598E-09 Eh
 * total energy  :   -44.8150163 Eh     change       -0.4951423E-02 Eh
 * total energy  :   -44.8159890 Eh     change       -0.9727974E-03 Eh
 * total energy  :   -44.8160688 Eh     change       -0.7979466E-04 Eh
 * total energy  :   -44.8161320 Eh     change       -0.6320641E-04 Eh
 * total energy  :   -44.8161852 Eh     change       -0.5314902E-04 Eh
 * total energy  :   -44.8162266 Eh     change       -0.4140680E-04 Eh
 * total energy  :   -44.8163035 Eh     change       -0.7684817E-04 Eh
 * total energy  :   -44.8163876 Eh     change       -0.8409785E-04 Eh
 * total energy  :   -44.8164774 Eh     change       -0.8989250E-04 Eh
 * total energy  :   -44.8170975 Eh     change       -0.1273502E-04 Eh
 * total energy  :   -44.8171117 Eh     change       -0.1417386E-04 Eh
 * total energy  :   -44.8171242 Eh     change       -0.1249989E-04 Eh
 * total energy  :   -44.8171376 Eh     change       -0.1339891E-04 Eh
 * total energy  :   -44.8171473 Eh     change       -0.9722575E-05 Eh
 * total energy  :   -44.8171561 Eh     change       -0.8804919E-05 Eh
 * total energy  :   -44.8171635 Eh     change       -0.7341529E-05 Eh
 * total energy  :   -44.8171654 Eh     change       -0.1929986E-05 Eh
 * total energy  :   -44.8171691 Eh     change       -0.3671329E-05 Eh
   *** GEOMETRY OPTIMIZATION CONVERGED AFTER 28 ITERATIONS ***

 final structure:
================
14
 xtb: 6.7.1 (edcfbbe)
C           -3.63643361526284       -3.50823003348878        0.08494110626960
C           -5.04198252845832       -3.54877562074675        0.74800829429697
C           -5.60382579274891       -4.97417498293513        0.50352644482452
O           -5.00706701872666       -3.23935832434081        2.02576378171431
F           -2.81790046593334       -4.49931290595402        0.47495675532906
F           -3.67173442625976       -3.57521004483420       -1.26512472330239
F           -2.99886182522529       -2.36457961959658        0.36823883672452
F           -4.97493907131672       -5.92629829631680        1.20645697669704
F           -5.54927461191677       -5.37549416629209       -0.78728480768646
F           -6.89915422451336       -5.05140990986181        0.84451442280563
H           -5.67386807835876       -2.87921610874799        0.10967847116410
O           -6.26959960079655       -0.91867177669959        2.50867271806808
H           -5.83327389459694       -1.79272985478730        2.39030209774023
H           -5.75259683344713       -0.47497738077999        3.19017596950835

          :  Hamiltonian                  GFN2-xTB          :
         :: gradient norm              0.000762490860 Eh/a0 ::
         :: HOMO-LUMO gap              9.767198412808 eV    ::
         :: SCC energy               -44.960635028746 Eh    ::
         :: -> dispersion             -0.009395517493 Eh    ::
         :: -> Gsolv                  -0.092573091088 Eh    ::
         :: repulsion energy           0.143465952632 Eh    ::

    * Orbital Energies and Occupations

         #    Occupation            Energy/Eh            Energy/eV
      -------------------------------------------------------------
         1        2.0000           -0.8986102             -24.4524
       ...           ...                  ...                  ...
        23        2.0000           -0.5539781             -15.0745
        24        2.0000           -0.5531320             -15.0515
        25        2.0000           -0.5528851             -15.0448
        26        2.0000           -0.5514820             -15.0066
        27        2.0000           -0.5511083             -14.9964
        28        2.0000           -0.5441137             -14.8061
        29        2.0000           -0.5242092             -14.2645
        30        2.0000           -0.5194281             -14.1344
        31        2.0000           -0.5064532             -13.7813
        32        2.0000           -0.4850771             -13.1996
        33        2.0000           -0.4203505             -11.4383
        34        2.0000           -0.3843183             -10.4578
        35        2.0000           -0.3798829             -10.3371 (HOMO)
        36                         -0.0209450              -0.5699 (LUMO)
        37                         -0.0128619              -0.3500
        38                         -0.0013312              -0.0362
        39                          0.0298687               0.8128
        40                          0.0378008               1.0286
        41                          0.1015815               2.7642
        42                          0.1255192               3.4156
        43                          0.1394177               3.7937
        44                          0.1426852               3.8827
        45                          0.1565908               4.2611
        46                          0.2761468               7.5143
        47                          0.3535208               9.6198
      -------------------------------------------------------------
                  HL-Gap            0.3589379 Eh            9.7672 eV

     #   Z          covCN         q      C6AA      α(0)
     1   6 C        3.329     0.468    17.635     6.667
     2   6 C        3.722     0.151    18.257     6.102
     3   6 C        3.329     0.469    17.613     6.662
     4   8 O        0.856    -0.745    29.970     7.340
     5   9 F        0.790    -0.217    11.413     3.991
     6   9 F        0.790    -0.228    11.528     4.011
     7   9 F        0.791    -0.207    11.307     3.972
     8   9 F        0.791    -0.211    11.350     3.980
     9   9 F        0.790    -0.230    11.550     4.015
    10   9 F        0.791    -0.212    11.355     3.981
    11   1 H        0.920     0.009     2.909     2.667
    12   8 O        1.607    -0.702    27.759     7.111
    13   1 H        0.802     0.302     0.717     1.330
    14   1 H        0.805     0.354     0.579     1.195

Wiberg/Mayer (AO) data.
largest (>0.10) Wiberg bond orders for each atom

     #   Z sym  total        # sym  WBO       # sym  WBO       # sym  WBO
 ---------------------------------------------------------------------------
     1   6 C    3.792 --     7 F    0.955     5 F    0.946     6 F    0.931
                             2 C    0.879
     2   6 C    3.976 --     4 O    1.172    11 H    0.921     3 C    0.882
                             1 C    0.879
     3   6 C    3.793 --     8 F    0.952    10 F    0.950     9 F    0.928
                             2 C    0.882
     4   8 O    1.462 --     2 C    1.172
     5   9 F    1.064 --     1 C    0.946
     6   9 F    1.049 --     1 C    0.931
     7   9 F    1.072 --     1 C    0.955
     8   9 F    1.070 --     3 C    0.952
     9   9 F    1.047 --     3 C    0.928
    10   9 F    1.067 --     3 C    0.950
    11   1 H    1.000 --     2 C    0.921
    12   8 O    1.754 --    14 H    0.875    13 H    0.846
    13   1 H    0.909 --    12 O    0.846
    14   1 H    0.875 --    12 O    0.875
 ---------------------------------------------------------------------------

molecular dipole:
                 x           y           z       tot (Debye)
 q only:        9.549       6.905      -2.218
   full:        9.682       6.767      -2.401      30.637

 projected vibrational frequencies (cm⁻¹)
eigval :       -0.00    -0.00    -0.00     0.00     0.00     0.00
eigval :       19.08    20.24    39.41    69.96   124.33   140.98
eigval :      163.36   202.88   253.15   266.31   301.38   323.47
eigval :      430.82   459.76   467.88   480.86   494.33   557.86
eigval :      608.91   664.26   755.32   787.81   817.85   996.46
eigval :     1008.79  1030.04  1070.88  1145.69  1165.30  1190.56
eigval :     1228.51  1291.12  1540.15  2627.16  3121.54  3592.96

   temp. (K)  partition function   enthalpy   heat capacity  entropy
                                   cal/mol     cal/K/mol   cal/K/mol   J/K/mol
 298.15  VIB  0.243E+06             6226.115     33.536     39.933
         ROT  0.111E+07              888.752      2.981     30.639
         INT  0.269E+12             7114.868     36.517     70.572
         TR   0.244E+28             1481.254      4.968     41.534
         TOT                        8596.1216    41.4851   112.1056   469.0496

       T/K    H(0)-H(T)+PV         H(T)/Eh          T*S/Eh         G(T)/Eh
   ------------------------------------------------------------------------
    298.15    0.136988E-01    0.808122E-01    0.532650E-01    0.275472E-01
   ------------------------------------------------------------------------

         :::::::::::::::::::::::::::::::::::::::::::::::::::::
         ::                  THERMODYNAMIC                  ::
         :::::::::::::::::::::::::::::::::::::::::::::::::::::
         :: total free energy         -44.789621830110 Eh   ::
         ::.................................................::
         :: total energy              -44.817169076845 Eh   ::
         :: zero point energy           0.067113421325 Eh   ::
         :: G(RRHO) w/o ZPVE           -0.039566174590 Eh   ::
         :: G(RRHO) contrib.            0.027547246735 Eh   ::
         :::::::::::::::::::::::::::::::::::::::::::::::::::::

           -------------------------------------------------
          | TOTAL ENERGY              -44.817169076845 Eh   |
          | TOTAL ENTHALPY            -44.736356863842 Eh   |
          | TOTAL FREE ENERGY         -44.789621830110 Eh   |
          | GRADIENT NORM               0.000762678858 Eh/α |
          | HOMO-LUMO GAP               9.767198262314 eV   |
           -------------------------------------------------

 * finished run on 2025/10/18 at 07:31:17.935
normal termination of xtb
