   * xtb version 6.7.1 (edcfbbe) compiled by 'albert@albert-system' on 2024-07-22

   ID    Z sym.   atoms
    1    6 C      1-3
    2    8 O      4, 12
    3    9 F      5-10
    4    1 H      11, 13, 14

          program call               : xtb tb_lite_results_shiftn0p15_gp169_b0_rot90_complex.xyz --ohess --chrg -1 --alpb water
      * Solvation model:               ALPB
        Solvent                        water
        Solvent mass                       1.8000E+01 g/mol
          :  Hamiltonian                  GFN2-xTB          :
 * total energy  :   -44.8115097 Eh     change       -0.1635172E-09 Eh
 * total energy  :   -44.8160651 Eh     change       -0.4555341E-02 Eh
 * total energy  :   -44.8171039 Eh     change       -0.1038828E-02 Eh
 * total energy  :   -44.8171528 Eh     change       -0.4889923E-04 Eh
 * total energy  :   -44.8171764 Eh     change       -0.2358731E-04 Eh
 * total energy  :   -44.8171794 Eh     change       -0.3061203E-05 Eh
   *** GEOMETRY OPTIMIZATION CONVERGED AFTER 6 ITERATIONS ***

 final structure:
================
14
 xtb: 6.7.1 (edcfbbe)
C           -3.79457290481224       -3.34627456238612        0.35145262713635
C           -5.25246575237515       -3.65759717419494        0.78342426903755
C           -5.54003251033114       -5.12439835803234        0.36564965783120
O           -5.44508249234157       -3.45788751416167        2.06929318468910
F           -2.87472545338623       -4.10996830097960        0.95985168176582
F           -3.57004716248383       -3.48975038422988       -0.97427166421360
F           -3.46895414445379       -2.07561686435976        0.63067818626419
F           -4.74656683628976       -6.02402035196225        0.96627932388341
F           -5.41388876244506       -5.35378745773599       -0.96106648184769
F           -6.79842213541572       -5.47541672054714        0.66794522728402
H           -5.88949237722581       -3.03766644446204        0.10091905706443
O           -7.29833300034580       -1.59124693433841        2.63202390164150
H           -6.61965828680534       -2.28049438646557        2.45444602691053
H           -7.31195878233457       -1.50101515476831        3.59098167017666

          :  Hamiltonian                  GFN2-xTB          :
         :: gradient norm              0.000579648089 Eh/a0 ::
         :: HOMO-LUMO gap              9.782293787862 eV    ::
         :: SCC energy               -44.960874813129 Eh    ::
         :: -> dispersion             -0.009356323448 Eh    ::
         :: -> Gsolv                  -0.092748101176 Eh    ::
         :: repulsion energy           0.143695382560 Eh    ::

    * Orbital Energies and Occupations

         #    Occupation            Energy/Eh            Energy/eV
      -------------------------------------------------------------
         1        2.0000           -0.8986320             -24.4530
       ...           ...                  ...                  ...
        23        2.0000           -0.5538717             -15.0716
        24        2.0000           -0.5529893             -15.0476
        25        2.0000           -0.5528287             -15.0432
        26        2.0000           -0.5513244             -15.0023
        27        2.0000           -0.5510177             -14.9940
        28        2.0000           -0.5440351             -14.8039
        29        2.0000           -0.5243621             -14.2686
        30        2.0000           -0.5193327             -14.1318
        31        2.0000           -0.5067704             -13.7899
        32        2.0000           -0.4846604             -13.1883
        33        2.0000           -0.4200577             -11.4304
        34        2.0000           -0.3840595             -10.4508
        35        2.0000           -0.3798184             -10.3354 (HOMO)
        36                         -0.0203257              -0.5531 (LUMO)
        37                         -0.0118549              -0.3226
        38                         -0.0012562              -0.0342
        39                          0.0300431               0.8175
        40                          0.0371961               1.0122
        41                          0.1013918               2.7590
        42                          0.1263905               3.4393
        43                          0.1405827               3.8254
        44                          0.1435455               3.9061
        45                          0.1552876               4.2256
        46                          0.2756261               7.5002
        47                          0.3547621               9.6536
      -------------------------------------------------------------
                  HL-Gap            0.3594927 Eh            9.7823 eV

     #   Z          covCN         q      C6AA      α(0)
     1   6 C        3.329     0.468    17.623     6.664
     2   6 C        3.722     0.151    18.251     6.101
     3   6 C        3.329     0.468    17.623     6.664
     4   8 O        0.856    -0.746    29.987     7.342
     5   9 F        0.790    -0.214    11.376     3.984
     6   9 F        0.790    -0.229    11.538     4.012
     7   9 F        0.791    -0.210    11.335     3.977
     8   9 F        0.790    -0.214    11.378     3.984
     9   9 F        0.790    -0.229    11.537     4.012
    10   9 F        0.791    -0.210    11.334     3.977
    11   1 H        0.920     0.008     2.928     2.676
    12   8 O        1.607    -0.701    27.749     7.110
    13   1 H        0.802     0.301     0.718     1.331
    14   1 H        0.805     0.355     0.578     1.194

Wiberg/Mayer (AO) data.
largest (>0.10) Wiberg bond orders for each atom

     #   Z sym  total        # sym  WBO       # sym  WBO       # sym  WBO
 ---------------------------------------------------------------------------
     1   6 C    3.793 --     7 F    0.952     5 F    0.949     6 F    0.930
                             2 C    0.881
     2   6 C    3.976 --     4 O    1.171    11 H    0.920     3 C    0.881
                             1 C    0.881
     3   6 C    3.793 --    10 F    0.952     8 F    0.949     9 F    0.930
                             2 C    0.881
     4   8 O    1.460 --     2 C    1.171
     5   9 F    1.068 --     1 C    0.949
     6   9 F    1.048 --     1 C    0.930
     7   9 F    1.069 --     1 C    0.952
     8   9 F    1.067 --     3 C    0.949
     9   9 F    1.048 --     3 C    0.930
    10   9 F    1.069 --     3 C    0.952
    11   1 H    1.000 --     2 C    0.920
    12   8 O    1.754 --    14 H    0.874    13 H    0.847
    13   1 H    0.909 --    12 O    0.847
    14   1 H    0.874 --    12 O    0.874
 ---------------------------------------------------------------------------

molecular dipole:
                 x           y           z       tot (Debye)
 q only:        9.861       6.999      -2.197
   full:       10.004       6.864      -2.354      31.412

 projected vibrational frequencies (cm⁻¹)
eigval :       -0.00    -0.00     0.00     0.00     0.00     0.00
eigval :        9.69    23.56    33.18    70.59   101.66   127.03
eigval :      162.97   200.95   252.71   261.55   301.57   322.17
eigval :      431.41   459.50   466.76   481.17   495.63   558.89
eigval :      608.22   664.57   736.67   786.40   818.63   996.81
eigval :     1011.72  1025.90  1070.34  1146.36  1164.90  1189.01
eigval :     1229.04  1288.12  1543.19  2623.42  3133.51  3596.34

   temp. (K)  partition function   enthalpy   heat capacity  entropy
                                   cal/mol     cal/K/mol   cal/K/mol   J/K/mol
 298.15  VIB  0.602E+06             6295.809     33.473     41.106
         ROT  0.112E+07              888.752      2.981     30.662
         INT  0.675E+12             7184.561     36.454     71.768
         TR   0.244E+28             1481.254      4.968     41.534
         TOT                        8665.8153    41.4221   113.3014   474.0530

       T/K    H(0)-H(T)+PV         H(T)/Eh          T*S/Eh         G(T)/Eh
   ------------------------------------------------------------------------
    298.15    0.138099E-01    0.807746E-01    0.538331E-01    0.269415E-01
   ------------------------------------------------------------------------

         :::::::::::::::::::::::::::::::::::::::::::::::::::::
         ::                  THERMODYNAMIC                  ::
         :::::::::::::::::::::::::::::::::::::::::::::::::::::
         :: total free energy         -44.790237928725 Eh   ::
         ::.................................................::
         :: total energy              -44.817179430517 Eh   ::
         :: zero point energy           0.066964786225 Eh   ::
         :: G(RRHO) w/o ZPVE           -0.040023284434 Eh   ::
         :: G(RRHO) contrib.            0.026941501792 Eh   ::
         :::::::::::::::::::::::::::::::::::::::::::::::::::::

           -------------------------------------------------
          | TOTAL ENERGY              -44.817179430517 Eh   |
          | TOTAL ENTHALPY            -44.736404788615 Eh   |
          | TOTAL FREE ENERGY         -44.790237928725 Eh   |
          | GRADIENT NORM               0.000579610569 Eh/α |
          | HOMO-LUMO GAP               9.782294449141 eV   |
           -------------------------------------------------

 * finished run on 2025/10/18 at 07:31:20.179
normal termination of xtb
