   * xtb version 6.7.1 (edcfbbe) compiled by 'albert@albert-system' on 2024-07-22

   ID    Z sym.   atoms
    1    6 C      1-3
    2    8 O      4
    3    9 F      5-10
    4    1 H      11

          program call               : xtb tb_lite_results_shiftn0p1_gp157_b0_rot0_solute.xyz --ohess --chrg -1
          :  Hamiltonian                  GFN2-xTB          :
 * total energy  :   -39.6310539 Eh     change       -0.5080381E-11 Eh
 * total energy  :   -39.6369301 Eh     change       -0.5876192E-02 Eh
 * total energy  :   -39.6380471 Eh     change       -0.1117078E-02 Eh
 * total energy  :   -39.6380832 Eh     change       -0.3609706E-04 Eh
 * total energy  :   -39.6380981 Eh     change       -0.1490857E-04 Eh
 * total energy  :   -39.6381019 Eh     change       -0.3790459E-05 Eh
   *** GEOMETRY OPTIMIZATION CONVERGED AFTER 6 ITERATIONS ***

 final structure:
================
11
 xtb: 6.7.1 (edcfbbe)
C           -3.79325513672109       -3.33472937558968        0.37350113797902
C           -5.27445327652595       -3.63650910701648        0.83922167739492
C           -5.55045921370934       -5.12663503987439        0.38573108452407
O           -5.49150574453182       -3.41487838899532        2.07495849689208
F           -2.85076638897380       -4.08581859241128        0.96514515640793
F           -3.58161705836291       -3.47930294161996       -0.96437542997647
F           -3.46425877257981       -2.05487778093652        0.63043976190848
F           -4.76780547844896       -6.04926850273593        0.96802437476838
F           -5.42423815651067       -5.34089535908442       -0.95359150217918
F           -6.81768611452427       -5.48345177362457        0.66625323453234
H           -5.88714392152876       -3.04103136180528        0.07689603279028

          :  Hamiltonian                  GFN2-xTB          :
         :: gradient norm              0.000767317682 Eh/a0 ::
         :: HOMO-LUMO gap              9.004590443758 eV    ::
         :: SCC energy               -39.748532443332 Eh    ::
         :: -> dispersion             -0.007950872335 Eh    ::
         :: repulsion energy           0.110430503047 Eh    ::

    * Orbital Energies and Occupations

         #    Occupation            Energy/Eh            Energy/eV
      -------------------------------------------------------------
         1        2.0000           -0.7318127             -19.9136
       ...           ...                  ...                  ...
        19        2.0000           -0.4001639             -10.8890
        20        2.0000           -0.3986541             -10.8479
        21        2.0000           -0.3886677             -10.5762
        22        2.0000           -0.3879094             -10.5556
        23        2.0000           -0.3870927             -10.5333
        24        2.0000           -0.3864079             -10.5147
        25        2.0000           -0.3855270             -10.4907
        26        2.0000           -0.3849172             -10.4741
        27        2.0000           -0.3641291              -9.9085
        28        2.0000           -0.3516352              -9.5685
        29        2.0000           -0.3236687              -8.8075
        30        2.0000           -0.2013162              -5.4781
        31        2.0000           -0.1965340              -5.3480 (HOMO)
        32                          0.1343786               3.6566 (LUMO)
        33                          0.1358411               3.6964
        34                          0.1593702               4.3367
        35                          0.1813921               4.9359
        36                          0.1922518               5.2314
        37                          0.2581842               7.0256
        38                          0.2880020               7.8369
        39                          0.2964064               8.0656
        40                          0.2983020               8.1172
        41                          0.5841512              15.8956
      -------------------------------------------------------------
                  HL-Gap            0.3309126 Eh            9.0046 eV

     #   Z          covCN         q      C6AA      α(0)
     1   6 C        3.323     0.442    18.071     6.762
     2   6 C        3.706     0.170    18.006     6.066
     3   6 C        3.322     0.442    18.072     6.762
     4   8 O        0.856    -0.659    27.609     7.045
     5   9 F        0.790    -0.214    11.376     3.984
     6   9 F        0.790    -0.244    11.703     4.041
     7   9 F        0.791    -0.217    11.409     3.990
     8   9 F        0.790    -0.214    11.379     3.985
     9   9 F        0.790    -0.244    11.702     4.041
    10   9 F        0.791    -0.216    11.406     3.989
    11   1 H        0.913    -0.046     4.002     3.129

Wiberg/Mayer (AO) data.
largest (>0.10) Wiberg bond orders for each atom

     #   Z sym  total        # sym  WBO       # sym  WBO       # sym  WBO
 ---------------------------------------------------------------------------
     1   6 C    3.760 --     5 F    0.952     7 F    0.948     6 F    0.918
                             2 C    0.836
     2   6 C    3.970 --     4 O    1.288    11 H    0.894     1 C    0.836
                             3 C    0.836
     3   6 C    3.760 --     8 F    0.952    10 F    0.948     9 F    0.918
                             2 C    0.836
     4   8 O    1.566 --     2 C    1.288
     5   9 F    1.069 --     1 C    0.952
     6   9 F    1.035 --     1 C    0.918
     7   9 F    1.062 --     1 C    0.948
     8   9 F    1.069 --     3 C    0.952
     9   9 F    1.035 --     3 C    0.918
    10   9 F    1.063 --     3 C    0.948
    11   1 H    0.998 --     2 C    0.894
 ---------------------------------------------------------------------------

molecular dipole:
                 x           y           z       tot (Debye)
 q only:        9.293       7.530      -2.112
   full:        9.330       7.491      -2.458      31.047

 projected vibrational frequencies (cm⁻¹)
eigval :       -0.00    -0.00    -0.00    -0.00     0.00     0.00
eigval :       -7.94    66.17   127.74   190.87   191.40   235.14
eigval :      286.54   310.48   417.67   461.15   461.64   474.48
eigval :      536.60   609.63   651.80   750.74   756.50   991.90
eigval :     1026.96  1030.25  1089.64  1114.73  1147.90  1224.86
eigval :     1317.45  1336.94  2356.08

   temp. (K)  partition function   enthalpy   heat capacity  entropy
                                   cal/mol     cal/K/mol   cal/K/mol   J/K/mol
 298.15  VIB  0.313E+04             4291.640     25.778     27.034
         ROT  0.602E+06              888.752      2.981     29.428
         INT  0.188E+10             5180.393     28.759     56.462
         TR   0.209E+28             1481.254      4.968     41.228
         TOT                        6661.6465    33.7269    97.6903   408.7363

       T/K    H(0)-H(T)+PV         H(T)/Eh          T*S/Eh         G(T)/Eh
   ------------------------------------------------------------------------
    298.15    0.106160E-01    0.542958E-01    0.464158E-01    0.787996E-02
   ------------------------------------------------------------------------

         :::::::::::::::::::::::::::::::::::::::::::::::::::::
         ::                  THERMODYNAMIC                  ::
         :::::::::::::::::::::::::::::::::::::::::::::::::::::
         :: total free energy         -39.630221981366 Eh   ::
         ::.................................................::
         :: total energy              -39.638101940286 Eh   ::
         :: zero point energy           0.043679775504 Eh   ::
         :: G(RRHO) w/o ZPVE           -0.035799816585 Eh   ::
         :: G(RRHO) contrib.            0.007879958919 Eh   ::
         :::::::::::::::::::::::::::::::::::::::::::::::::::::

           -------------------------------------------------
          | TOTAL ENERGY              -39.638101940286 Eh   |
          | TOTAL ENTHALPY            -39.583806155290 Eh   |
          | TOTAL FREE ENERGY         -39.630221981366 Eh   |
          | GRADIENT NORM               0.000767295116 Eh/α |
          | HOMO-LUMO GAP               9.004590446351 eV   |
           -------------------------------------------------

 * finished run on 2025/10/18 at 07:31:18.510
normal termination of xtb
