   * xtb version 6.7.1 (edcfbbe) compiled by 'albert@albert-system' on 2024-07-22

   ID    Z sym.   atoms
    1    6 C      1-3
    2    8 O      4, 12
    3    9 F      5-10
    4    1 H      11, 13, 14

          program call               : xtb tb_lite_results_shiftn0p15_gp157_b0_rot0_complex.xyz --ohess --chrg -1 --alpb water
      * Solvation model:               ALPB
        Solvent                        water
        Solvent mass                       1.8000E+01 g/mol
          :  Hamiltonian                  GFN2-xTB          :
 * total energy  :   -44.8097977 Eh     change       -0.2795559E-09 Eh
 * total energy  :   -44.8149487 Eh     change       -0.5150980E-02 Eh
 * total energy  :   -44.8159517 Eh     change       -0.1003005E-02 Eh
 * total energy  :   -44.8160498 Eh     change       -0.9817663E-04 Eh
 * total energy  :   -44.8161144 Eh     change       -0.6453735E-04 Eh
 * total energy  :   -44.8161717 Eh     change       -0.5728545E-04 Eh
 * total energy  :   -44.8162134 Eh     change       -0.4170487E-04 Eh
 * total energy  :   -44.8162856 Eh     change       -0.7220252E-04 Eh
 * total energy  :   -44.8163646 Eh     change       -0.7900632E-04 Eh
 * total energy  :   -44.8164056 Eh     change       -0.4100742E-04 Eh
 * total energy  :   -44.8170715 Eh     change       -0.2395114E-04 Eh
 * total energy  :   -44.8170913 Eh     change       -0.1978156E-04 Eh
 * total energy  :   -44.8171066 Eh     change       -0.1524558E-04 Eh
 * total energy  :   -44.8171274 Eh     change       -0.2081096E-04 Eh
 * total energy  :   -44.8171367 Eh     change       -0.9305444E-05 Eh
 * total energy  :   -44.8171523 Eh     change       -0.1563565E-04 Eh
 * total energy  :   -44.8171615 Eh     change       -0.9215085E-05 Eh
 * total energy  :   -44.8171642 Eh     change       -0.2615198E-05 Eh
 * total energy  :   -44.8171686 Eh     change       -0.4415052E-05 Eh
   *** GEOMETRY OPTIMIZATION CONVERGED AFTER 28 ITERATIONS ***

 final structure:
================
14
 xtb: 6.7.1 (edcfbbe)
C           -3.63421896282342       -3.50724053443468        0.09351810156058
C           -5.04352978170752       -3.56247636893453        0.74834138783751
C           -5.59106887826215       -4.99232125096781        0.49461646369851
O           -5.01904719323420       -3.25698356501412        2.02699791481893
F           -2.80890310388249       -4.49150806515920        0.48708390266198
F           -3.66045349985468       -3.57199815051949       -1.25674021387619
F           -3.00897762811310       -2.35813072147177        0.38303854896683
F           -4.96038846884690       -5.94124153938315        1.20011116250995
F           -5.52187072828775       -5.38881455139856       -0.79673346219487
F           -6.88872966197675       -5.08113801040599        0.82387754811102
H           -5.67760788277074       -2.89667888426622        0.10833508876302
O           -6.28114774843216       -0.93219014149558        2.50083485398146
H           -5.84677575825272       -1.80749213652885        2.38558243731992
H           -5.76002534583951       -0.48499371067332        3.17619526471911

          :  Hamiltonian                  GFN2-xTB          :
         :: gradient norm              0.000639215529 Eh/a0 ::
         :: HOMO-LUMO gap              9.763572884061 eV    ::
         :: SCC energy               -44.960703276648 Eh    ::
         :: -> dispersion             -0.009396928698 Eh    ::
         :: -> Gsolv                  -0.092544637651 Eh    ::
         :: repulsion energy           0.143534708321 Eh    ::

    * Orbital Energies and Occupations

         #    Occupation            Energy/Eh            Energy/eV
      -------------------------------------------------------------
         1        2.0000           -0.8986061             -24.4523
       ...           ...                  ...                  ...
        23        2.0000           -0.5539829             -15.0746
        24        2.0000           -0.5531391             -15.0517
        25        2.0000           -0.5528605             -15.0441
        26        2.0000           -0.5514614             -15.0060
        27        2.0000           -0.5511110             -14.9965
        28        2.0000           -0.5441091             -14.8060
        29        2.0000           -0.5242814             -14.2664
        30        2.0000           -0.5194075             -14.1338
        31        2.0000           -0.5064391             -13.7809
        32        2.0000           -0.4851728             -13.2022
        33        2.0000           -0.4204521             -11.4411
        34        2.0000           -0.3843208             -10.4579
        35        2.0000           -0.3798986             -10.3376 (HOMO)
        36                         -0.0210940              -0.5740 (LUMO)
        37                         -0.0130495              -0.3551
        38                         -0.0010447              -0.0284
        39                          0.0298468               0.8122
        40                          0.0380249               1.0347
        41                          0.1013760               2.7586
        42                          0.1257052               3.4206
        43                          0.1391054               3.7853
        44                          0.1424680               3.8768
        45                          0.1567004               4.2640
        46                          0.2766660               7.5285
        47                          0.3537043               9.6248
      -------------------------------------------------------------
                  HL-Gap            0.3588046 Eh            9.7636 eV

     #   Z          covCN         q      C6AA      α(0)
     1   6 C        3.328     0.467    17.638     6.668
     2   6 C        3.721     0.151    18.256     6.102
     3   6 C        3.329     0.469    17.615     6.662
     4   8 O        0.856    -0.745    29.967     7.339
     5   9 F        0.790    -0.217    11.415     3.991
     6   9 F        0.790    -0.228    11.527     4.010
     7   9 F        0.791    -0.207    11.307     3.972
     8   9 F        0.791    -0.211    11.350     3.980
     9   9 F        0.790    -0.230    11.549     4.014
    10   9 F        0.791    -0.212    11.357     3.981
    11   1 H        0.920     0.009     2.910     2.668
    12   8 O        1.607    -0.702    27.751     7.110
    13   1 H        0.802     0.302     0.717     1.330
    14   1 H        0.805     0.354     0.579     1.195

Wiberg/Mayer (AO) data.
largest (>0.10) Wiberg bond orders for each atom

     #   Z sym  total        # sym  WBO       # sym  WBO       # sym  WBO
 ---------------------------------------------------------------------------
     1   6 C    3.792 --     7 F    0.954     5 F    0.946     6 F    0.931
                             2 C    0.878
     2   6 C    3.976 --     4 O    1.173    11 H    0.921     3 C    0.881
                             1 C    0.878
     3   6 C    3.793 --     8 F    0.952    10 F    0.950     9 F    0.929
                             2 C    0.881
     4   8 O    1.463 --     2 C    1.173
     5   9 F    1.064 --     1 C    0.946
     6   9 F    1.049 --     1 C    0.931
     7   9 F    1.072 --     1 C    0.954
     8   9 F    1.070 --     3 C    0.952
     9   9 F    1.047 --     3 C    0.929
    10   9 F    1.067 --     3 C    0.950
    11   1 H    1.000 --     2 C    0.921
    12   8 O    1.754 --    14 H    0.875    13 H    0.847
    13   1 H    0.909 --    12 O    0.847
    14   1 H    0.875 --    12 O    0.875
 ---------------------------------------------------------------------------

molecular dipole:
                 x           y           z       tot (Debye)
 q only:        9.554       6.931      -2.220
   full:        9.689       6.793      -2.404      30.692

 projected vibrational frequencies (cm⁻¹)
eigval :       -0.00    -0.00    -0.00     0.00     0.00     0.00
eigval :       20.97    24.34    39.44    70.27   125.31   126.98
eigval :      163.18   202.96   253.09   265.75   301.35   323.68
eigval :      430.68   459.61   467.89   480.75   491.75   557.61
eigval :      608.91   664.21   756.43   787.67   817.42   996.89
eigval :     1008.87  1030.45  1070.55  1145.12  1164.92  1191.41
eigval :     1228.37  1291.38  1539.85  2627.51  3124.56  3599.93

   temp. (K)  partition function   enthalpy   heat capacity  entropy
                                   cal/mol     cal/K/mol   cal/K/mol   J/K/mol
 298.15  VIB  0.199E+06             6233.941     33.588     39.912
         ROT  0.111E+07              888.752      2.981     30.638
         INT  0.221E+12             7122.693     36.569     70.550
         TR   0.244E+28             1481.254      4.968     41.534
         TOT                        8603.9470    41.5369   112.0838   468.9584

       T/K    H(0)-H(T)+PV         H(T)/Eh          T*S/Eh         G(T)/Eh
   ------------------------------------------------------------------------
    298.15    0.137113E-01    0.808262E-01    0.532546E-01    0.275716E-01
   ------------------------------------------------------------------------

         :::::::::::::::::::::::::::::::::::::::::::::::::::::
         ::                  THERMODYNAMIC                  ::
         :::::::::::::::::::::::::::::::::::::::::::::::::::::
         :: total free energy         -44.789596988634 Eh   ::
         ::.................................................::
         :: total energy              -44.817168568899 Eh   ::
         :: zero point energy           0.067114925148 Eh   ::
         :: G(RRHO) w/o ZPVE           -0.039543344883 Eh   ::
         :: G(RRHO) contrib.            0.027571580265 Eh   ::
         :::::::::::::::::::::::::::::::::::::::::::::::::::::

           -------------------------------------------------
          | TOTAL ENERGY              -44.817168568899 Eh   |
          | TOTAL ENTHALPY            -44.736342381391 Eh   |
          | TOTAL FREE ENERGY         -44.789596988634 Eh   |
          | GRADIENT NORM               0.000639338689 Eh/α |
          | HOMO-LUMO GAP               9.763571336237 eV   |
           -------------------------------------------------

 * finished run on 2025/10/18 at 07:31:13.076
normal termination of xtb
