   * xtb version 6.7.1 (edcfbbe) compiled by 'albert@albert-system' on 2024-07-22

   ID    Z sym.   atoms
    1    6 C      1-3
    2    8 O      4, 12
    3    9 F      5-10
    4    1 H      11, 13, 14

          program call               : xtb tb_lite_results_shiftn0p1_gp163_b0_rot180_complex.xyz --ohess --chrg -1 --alpb water
      * Solvation model:               ALPB
        Solvent                        water
        Solvent mass                       1.8000E+01 g/mol
          :  Hamiltonian                  GFN2-xTB          :
 * total energy  :   -44.8102508 Eh     change       -0.3035865E-09 Eh
 * total energy  :   -44.8151935 Eh     change       -0.4942772E-02 Eh
 * total energy  :   -44.8161613 Eh     change       -0.9677522E-03 Eh
 * total energy  :   -44.8162426 Eh     change       -0.8128424E-04 Eh
 * total energy  :   -44.8163066 Eh     change       -0.6399053E-04 Eh
 * total energy  :   -44.8163515 Eh     change       -0.4491843E-04 Eh
 * total energy  :   -44.8163835 Eh     change       -0.3196073E-04 Eh
 * total energy  :   -44.8164357 Eh     change       -0.5228878E-04 Eh
 * total energy  :   -44.8165301 Eh     change       -0.9436775E-04 Eh
 * total energy  :   -44.8166167 Eh     change       -0.8660173E-04 Eh
 * total energy  :   -44.8170836 Eh     change       -0.2268238E-04 Eh
 * total energy  :   -44.8171111 Eh     change       -0.2757743E-04 Eh
 * total energy  :   -44.8171277 Eh     change       -0.1655607E-04 Eh
 * total energy  :   -44.8171355 Eh     change       -0.7765767E-05 Eh
 * total energy  :   -44.8171437 Eh     change       -0.8251040E-05 Eh
 * total energy  :   -44.8171536 Eh     change       -0.9851415E-05 Eh
 * total energy  :   -44.8171601 Eh     change       -0.6581804E-05 Eh
 * total energy  :   -44.8171658 Eh     change       -0.5653758E-05 Eh
 * total energy  :   -44.8171675 Eh     change       -0.1754336E-05 Eh
   *** GEOMETRY OPTIMIZATION CONVERGED AFTER 26 ITERATIONS ***

 final structure:
================
14
 xtb: 6.7.1 (edcfbbe)
C           -3.92392874224061       -3.30625202716272        0.48908160309842
C           -5.35056263242521       -3.85621710488608        0.75378086608479
C           -5.39955968770155       -5.27678329548836        0.12393870189462
O           -5.65298146895725       -3.86007618935067        2.03348510885838
F           -2.97196745904689       -3.92074019874214        1.20493176924397
F           -3.52716659642839       -3.39490725485497       -0.80087327225856
F           -3.84054397719224       -2.00275417952853        0.79687611515457
F           -4.41400306484913       -6.09128607524190        0.53493911375661
F           -5.33111343380533       -5.27443129498762       -1.22639250538480
F           -6.54746787706650       -5.90029601048089        0.42102237464392
H           -6.02107375402828       -3.23684589666406        0.10400650939013
O           -8.00122164752907       -2.64134553469141        2.50749964094398
H           -7.11884654562750       -3.05957748758260        2.38809956240993
H           -8.41208849471589       -3.13190922447683        3.22834365040636

          :  Hamiltonian                  GFN2-xTB          :
         :: gradient norm              0.000990119930 Eh/a0 ::
         :: HOMO-LUMO gap              9.765175797556 eV    ::
         :: SCC energy               -44.960654874290 Eh    ::
         :: -> dispersion             -0.009393339865 Eh    ::
         :: -> Gsolv                  -0.092580846963 Eh    ::
         :: repulsion energy           0.143487325888 Eh    ::

    * Orbital Energies and Occupations

         #    Occupation            Energy/Eh            Energy/eV
      -------------------------------------------------------------
         1        2.0000           -0.8986302             -24.4530
       ...           ...                  ...                  ...
        23        2.0000           -0.5539830             -15.0746
        24        2.0000           -0.5531399             -15.0517
        25        2.0000           -0.5528543             -15.0439
        26        2.0000           -0.5514356             -15.0053
        27        2.0000           -0.5511022             -14.9963
        28        2.0000           -0.5440445             -14.8042
        29        2.0000           -0.5243018             -14.2670
        30        2.0000           -0.5193950             -14.1335
        31        2.0000           -0.5064842             -13.7821
        32        2.0000           -0.4850416             -13.1987
        33        2.0000           -0.4203519             -11.4384
        34        2.0000           -0.3842753             -10.4567
        35        2.0000           -0.3798885             -10.3373 (HOMO)
        36                         -0.0210249              -0.5721 (LUMO)
        37                         -0.0128094              -0.3486
        38                         -0.0009840              -0.0268
        39                          0.0300325               0.8172
        40                          0.0380761               1.0361
        41                          0.1014652               2.7610
        42                          0.1254497               3.4137
        43                          0.1394085               3.7935
        44                          0.1426467               3.8816
        45                          0.1561912               4.2502
        46                          0.2761317               7.5139
        47                          0.3538578               9.6290
      -------------------------------------------------------------
                  HL-Gap            0.3588636 Eh            9.7652 eV

     #   Z          covCN         q      C6AA      α(0)
     1   6 C        3.329     0.469    17.614     6.662
     2   6 C        3.722     0.151    18.256     6.102
     3   6 C        3.329     0.468    17.635     6.667
     4   8 O        0.856    -0.745    29.969     7.340
     5   9 F        0.791    -0.211    11.350     3.980
     6   9 F        0.790    -0.230    11.548     4.014
     7   9 F        0.791    -0.212    11.357     3.981
     8   9 F        0.790    -0.217    11.412     3.990
     9   9 F        0.790    -0.228    11.528     4.011
    10   9 F        0.791    -0.207    11.308     3.972
    11   1 H        0.920     0.009     2.915     2.670
    12   8 O        1.607    -0.701    27.748     7.109
    13   1 H        0.802     0.301     0.717     1.331
    14   1 H        0.805     0.354     0.579     1.195

Wiberg/Mayer (AO) data.
largest (>0.10) Wiberg bond orders for each atom

     #   Z sym  total        # sym  WBO       # sym  WBO       # sym  WBO
 ---------------------------------------------------------------------------
     1   6 C    3.793 --     5 F    0.952     7 F    0.950     6 F    0.929
                             2 C    0.882
     2   6 C    3.976 --     4 O    1.172    11 H    0.921     1 C    0.882
                             3 C    0.878
     3   6 C    3.792 --    10 F    0.954     8 F    0.946     9 F    0.931
                             2 C    0.878
     4   8 O    1.462 --     2 C    1.172
     5   9 F    1.070 --     1 C    0.952
     6   9 F    1.048 --     1 C    0.929
     7   9 F    1.066 --     1 C    0.950
     8   9 F    1.064 --     3 C    0.946
     9   9 F    1.049 --     3 C    0.931
    10   9 F    1.072 --     3 C    0.954
    11   1 H    1.000 --     2 C    0.921
    12   8 O    1.754 --    14 H    0.875    13 H    0.847
    13   1 H    0.909 --    12 O    0.847
    14   1 H    0.875 --    12 O    0.875
 ---------------------------------------------------------------------------

molecular dipole:
                 x           y           z       tot (Debye)
 q only:        9.935       7.273      -2.215
   full:       10.079       7.142      -2.394      31.982

 projected vibrational frequencies (cm⁻¹)
eigval :       -0.00    -0.00    -0.00     0.00     0.00     0.00
eigval :      -35.78    14.35    25.58    52.64    83.79   124.61
eigval :      162.91   202.81   253.16   264.61   301.33   323.95
eigval :      430.71   459.03   467.78   480.77   489.13   557.85
eigval :      608.81   664.22   747.89   786.84   817.61   997.14
eigval :     1008.91  1030.27  1070.73  1145.64  1165.20  1191.07
eigval :     1228.38  1290.56  1540.92  2625.40  3126.16  3589.36

   temp. (K)  partition function   enthalpy   heat capacity  entropy
                                   cal/mol     cal/K/mol   cal/K/mol   J/K/mol
 298.15  VIB  0.847E+05             5782.989     32.044     36.992
         ROT  0.111E+07              888.752      2.981     30.640
         INT  0.938E+11             6671.741     35.025     67.632
         TR   0.244E+28             1481.254      4.968     41.534
         TOT                        8152.9948    39.9932   109.1656   456.7488

       T/K    H(0)-H(T)+PV         H(T)/Eh          T*S/Eh         G(T)/Eh
   ------------------------------------------------------------------------
    298.15    0.129926E-01    0.798116E-01    0.518681E-01    0.279435E-01
   ------------------------------------------------------------------------

         :::::::::::::::::::::::::::::::::::::::::::::::::::::
         ::                  THERMODYNAMIC                  ::
         :::::::::::::::::::::::::::::::::::::::::::::::::::::
         :: total free energy         -44.789224064938 Eh   ::
         ::.................................................::
         :: total energy              -44.817167548039 Eh   ::
         :: zero point energy           0.066818952416 Eh   ::
         :: G(RRHO) w/o ZPVE           -0.038875469315 Eh   ::
         :: G(RRHO) contrib.            0.027943483101 Eh   ::
         :::::::::::::::::::::::::::::::::::::::::::::::::::::

           -------------------------------------------------
          | TOTAL ENERGY              -44.817167548039 Eh   |
          | TOTAL ENTHALPY            -44.737355971411 Eh   |
          | TOTAL FREE ENERGY         -44.789224064938 Eh   |
          | GRADIENT NORM               0.000990239174 Eh/α |
          | HOMO-LUMO GAP               9.765175861481 eV   |
           -------------------------------------------------

 * finished run on 2025/10/18 at 07:31:22.718
normal termination of xtb
