   * xtb version 6.7.1 (edcfbbe) compiled by 'albert@albert-system' on 2024-07-22

   ID    Z sym.   atoms
    1    6 C      1-3
    2    8 O      4, 12
    3    9 F      5-10
    4    1 H      11, 13, 14

          program call               : xtb tb_lite_results_shiftn0p15_gp163_b0_rot180_complex.xyz --ohess --chrg -1 --alpb water
      * Solvation model:               ALPB
        Solvent                        water
        Solvent mass                       1.8000E+01 g/mol
          :  Hamiltonian                  GFN2-xTB          :
 * total energy  :   -44.8099861 Eh     change       -0.3057110E-09 Eh
 * total energy  :   -44.8151184 Eh     change       -0.5132263E-02 Eh
 * total energy  :   -44.8161228 Eh     change       -0.1004368E-02 Eh
 * total energy  :   -44.8162269 Eh     change       -0.1041791E-03 Eh
 * total energy  :   -44.8162944 Eh     change       -0.6748390E-04 Eh
 * total energy  :   -44.8163444 Eh     change       -0.4999639E-04 Eh
 * total energy  :   -44.8163771 Eh     change       -0.3270497E-04 Eh
 * total energy  :   -44.8164246 Eh     change       -0.4748618E-04 Eh
 * total energy  :   -44.8165132 Eh     change       -0.8863115E-04 Eh
 * total energy  :   -44.8165409 Eh     change       -0.2765970E-04 Eh
 * total energy  :   -44.8170117 Eh     change       -0.7949719E-04 Eh
 * total energy  :   -44.8170448 Eh     change       -0.3316195E-04 Eh
 * total energy  :   -44.8170781 Eh     change       -0.3332671E-04 Eh
 * total energy  :   -44.8171036 Eh     change       -0.2544181E-04 Eh
 * total energy  :   -44.8171175 Eh     change       -0.1391692E-04 Eh
 * total energy  :   -44.8171298 Eh     change       -0.1231576E-04 Eh
 * total energy  :   -44.8171436 Eh     change       -0.1381622E-04 Eh
 * total energy  :   -44.8171549 Eh     change       -0.1122024E-04 Eh
 * total energy  :   -44.8171590 Eh     change       -0.4150148E-05 Eh
   *** GEOMETRY OPTIMIZATION CONVERGED AFTER 25 ITERATIONS ***

 final structure:
================
14
 xtb: 6.7.1 (edcfbbe)
C           -3.90458511657276       -3.32010362263295        0.47806946811134
C           -5.33709572691402       -3.85264112033128        0.74742598486006
C           -5.39943833069654       -5.27924050774261        0.13258300958469
O           -5.64096542201399       -3.84117623082152        2.02638313141204
F           -2.95951531108727       -3.93707446459377        1.20107565606063
F           -3.50761026807307       -3.42648937983699       -0.81068886893086
F           -3.80719364514077       -2.01426057846867        0.77197339422034
F           -4.42907936114851       -6.10147505329406        0.56363768050985
F           -5.31764925748674       -5.29461088799732       -1.21696044226894
F           -6.55842473960609       -5.88367887796820        0.42529179568567
H           -6.00054295520160       -3.23296001822782        0.09006376738369
O           -7.98690423041738       -2.61750072129442        2.52397395185251
H           -7.10548047284111       -3.03218226065801        2.39220472980184
H           -8.41327193915218       -3.14779539559613        3.20593863467604

          :  Hamiltonian                  GFN2-xTB          :
         :: gradient norm              0.000759894334 Eh/a0 ::
         :: HOMO-LUMO gap              9.761277504575 eV    ::
         :: SCC energy               -44.960797411996 Eh    ::
         :: -> dispersion             -0.009384028641 Eh    ::
         :: -> Gsolv                  -0.092496216960 Eh    ::
         :: repulsion energy           0.143638411121 Eh    ::

    * Orbital Energies and Occupations

         #    Occupation            Energy/Eh            Energy/eV
      -------------------------------------------------------------
         1        2.0000           -0.8986334             -24.4531
       ...           ...                  ...                  ...
        23        2.0000           -0.5539558             -15.0739
        24        2.0000           -0.5531729             -15.0526
        25        2.0000           -0.5529070             -15.0454
        26        2.0000           -0.5514626             -15.0061
        27        2.0000           -0.5511229             -14.9968
        28        2.0000           -0.5439260             -14.8010
        29        2.0000           -0.5246831             -14.2774
        30        2.0000           -0.5194698             -14.1355
        31        2.0000           -0.5064635             -13.7816
        32        2.0000           -0.4848589             -13.1937
        33        2.0000           -0.4204184             -11.4402
        34        2.0000           -0.3842185             -10.4551
        35        2.0000           -0.3798850             -10.3372 (HOMO)
        36                         -0.0211646              -0.5759 (LUMO)
        37                         -0.0129110              -0.3513
        38                         -0.0009942              -0.0271
        39                          0.0298359               0.8119
        40                          0.0379375               1.0323
        41                          0.1015202               2.7625
        42                          0.1257884               3.4229
        43                          0.1394093               3.7935
        44                          0.1424780               3.8770
        45                          0.1555104               4.2317
        46                          0.2767892               7.5318
        47                          0.3548853               9.6569
      -------------------------------------------------------------
                  HL-Gap            0.3587203 Eh            9.7613 eV

     #   Z          covCN         q      C6AA      α(0)
     1   6 C        3.329     0.469    17.616     6.662
     2   6 C        3.721     0.151    18.252     6.102
     3   6 C        3.329     0.468    17.634     6.667
     4   8 O        0.856    -0.745    29.975     7.340
     5   9 F        0.791    -0.211    11.351     3.980
     6   9 F        0.790    -0.230    11.548     4.014
     7   9 F        0.791    -0.212    11.358     3.981
     8   9 F        0.790    -0.217    11.412     3.990
     9   9 F        0.790    -0.228    11.529     4.011
    10   9 F        0.791    -0.207    11.308     3.972
    11   1 H        0.920     0.008     2.925     2.675
    12   8 O        1.607    -0.701    27.726     7.107
    13   1 H        0.802     0.301     0.717     1.330
    14   1 H        0.805     0.354     0.579     1.195

Wiberg/Mayer (AO) data.
largest (>0.10) Wiberg bond orders for each atom

     #   Z sym  total        # sym  WBO       # sym  WBO       # sym  WBO
 ---------------------------------------------------------------------------
     1   6 C    3.792 --     5 F    0.952     7 F    0.950     6 F    0.929
                             2 C    0.881
     2   6 C    3.976 --     4 O    1.173    11 H    0.920     1 C    0.881
                             3 C    0.878
     3   6 C    3.792 --    10 F    0.954     8 F    0.946     9 F    0.930
                             2 C    0.878
     4   8 O    1.462 --     2 C    1.173
     5   9 F    1.070 --     1 C    0.952
     6   9 F    1.048 --     1 C    0.929
     7   9 F    1.066 --     1 C    0.950
     8   9 F    1.064 --     3 C    0.946
     9   9 F    1.049 --     3 C    0.930
    10   9 F    1.072 --     3 C    0.954
    11   1 H    1.000 --     2 C    0.920
    12   8 O    1.755 --    14 H    0.875    13 H    0.848
    13   1 H    0.909 --    12 O    0.848
    14   1 H    0.875 --    12 O    0.875
 ---------------------------------------------------------------------------

molecular dipole:
                 x           y           z       tot (Debye)
 q only:        9.901       7.239      -2.241
   full:       10.043       7.099      -2.429      31.864

 projected vibrational frequencies (cm⁻¹)
eigval :       -0.00    -0.00     0.00     0.00     0.00     0.00
eigval :       15.74    20.45    35.38    68.54   125.47   146.00
eigval :      161.81   201.14   252.84   261.61   301.17   323.27
eigval :      430.63   459.54   467.59   480.78   488.73   557.33
eigval :      608.87   664.14   752.13   787.58   817.16   997.00
eigval :     1008.56  1029.93  1070.72  1145.53  1165.12  1191.68
eigval :     1228.40  1290.27  1536.79  2621.27  3140.70  3596.09

   temp. (K)  partition function   enthalpy   heat capacity  entropy
                                   cal/mol     cal/K/mol   cal/K/mol   J/K/mol
 298.15  VIB  0.323E+06             6242.985     33.470     40.135
         ROT  0.111E+07              888.752      2.981     30.646
         INT  0.359E+12             7131.737     36.450     70.781
         TR   0.244E+28             1481.254      4.968     41.534
         TOT                        8612.9910    41.4186   112.3144   469.9236

       T/K    H(0)-H(T)+PV         H(T)/Eh          T*S/Eh         G(T)/Eh
   ------------------------------------------------------------------------
    298.15    0.137257E-01    0.808176E-01    0.533642E-01    0.274534E-01
   ------------------------------------------------------------------------

         :::::::::::::::::::::::::::::::::::::::::::::::::::::
         ::                  THERMODYNAMIC                  ::
         :::::::::::::::::::::::::::::::::::::::::::::::::::::
         :: total free energy         -44.789705599810 Eh   ::
         ::.................................................::
         :: total energy              -44.817159000919 Eh   ::
         :: zero point energy           0.067091942912 Eh   ::
         :: G(RRHO) w/o ZPVE           -0.039638541804 Eh   ::
         :: G(RRHO) contrib.            0.027453401109 Eh   ::
         :::::::::::::::::::::::::::::::::::::::::::::::::::::

           -------------------------------------------------
          | TOTAL ENERGY              -44.817159000919 Eh   |
          | TOTAL ENTHALPY            -44.736341383209 Eh   |
          | TOTAL FREE ENERGY         -44.789705599810 Eh   |
          | GRADIENT NORM               0.000760159198 Eh/α |
          | HOMO-LUMO GAP               9.761277533373 eV   |
           -------------------------------------------------

 * finished run on 2025/10/18 at 07:31:15.587
normal termination of xtb
