   * xtb version 6.7.1 (edcfbbe) compiled by 'albert@albert-system' on 2024-07-22

   ID    Z sym.   atoms
    1    6 C      1, 2
    2    7 N      3
    3    8 O      4
    4    1 H      5-8

          program call               : xtb xyz.xyz --alpb water --charge -1 --ohess
      * Solvation model:               ALPB
        Solvent                        water
        Solvent mass                       1.8000E+01 g/mol
          :  Hamiltonian                  GFN2-xTB          :
 * total energy  :   -13.6013709 Eh     change       -0.1405454E-10 Eh
 * total energy  :   -13.6047987 Eh     change       -0.3427817E-02 Eh
 * total energy  :   -13.6053970 Eh     change       -0.5983362E-03 Eh
 * total energy  :   -13.6054547 Eh     change       -0.5770973E-04 Eh
 * total energy  :   -13.6055002 Eh     change       -0.4550764E-04 Eh
 * total energy  :   -13.6055211 Eh     change       -0.2082173E-04 Eh
 * total energy  :   -13.6055574 Eh     change       -0.3629766E-04 Eh
 * total energy  :   -13.6056051 Eh     change       -0.4776465E-04 Eh
 * total energy  :   -13.6056408 Eh     change       -0.3570511E-04 Eh
 * total energy  :   -13.6057121 Eh     change       -0.7127929E-04 Eh
 * total energy  :   -13.6057524 Eh     change       -0.4031675E-04 Eh
 * total energy  :   -13.6057607 Eh     change       -0.8284816E-05 Eh
 * total energy  :   -13.6057672 Eh     change       -0.6514896E-05 Eh
 * total energy  :   -13.6057728 Eh     change       -0.5557544E-05 Eh
 * total energy  :   -13.6057761 Eh     change       -0.3349787E-05 Eh
   *** GEOMETRY OPTIMIZATION CONVERGED AFTER 15 ITERATIONS ***

 final structure:
================
8
 xtb: 6.7.1 (edcfbbe)
C           -3.82107424916464       -0.66026048943843       -0.67808557988354
C           -2.52603234486683        0.13778583581046       -0.84649095724975
N           -1.45998628226732       -0.46798955802017       -0.41617709281905
O           -2.59449110694151        1.29092200456875       -1.37842759836011
H           -4.54870018456191       -0.04970172527954       -0.14731995999665
H           -4.21960064865497       -0.89610591221728       -1.66312410009855
H           -3.61321125694617       -1.57185911461089       -0.12870398900396
H           -0.63815392659666        0.12668295918711       -0.56656872258840

          :  Hamiltonian                  GFN2-xTB          :
         :: gradient norm              0.000853478148 Eh/a0 ::
         :: HOMO-LUMO gap              5.121358546543 eV    ::
         :: SCC energy               -13.743971769360 Eh    ::
         :: -> dispersion             -0.003723225212 Eh    ::
         :: -> Gsolv                  -0.113058104973 Eh    ::
         :: repulsion energy           0.138195631459 Eh    ::

    * Orbital Energies and Occupations

         #    Occupation            Energy/Eh            Energy/eV
      -------------------------------------------------------------
         1        2.0000           -0.6334956             -17.2383
         2        2.0000           -0.5866328             -15.9631
         3        2.0000           -0.5695675             -15.4987
         4        2.0000           -0.5129345             -13.9577
         5        2.0000           -0.4814840             -13.1018
         6        2.0000           -0.4803331             -13.0705
         7        2.0000           -0.4545675             -12.3694
         8        2.0000           -0.4360677             -11.8660
         9        2.0000           -0.4302077             -11.7065
        10        2.0000           -0.3538518              -9.6288
        11        2.0000           -0.3374461              -9.1824
        12        2.0000           -0.3306314              -8.9969 (HOMO)
        13                         -0.1424250              -3.8756 (LUMO)
        14                          0.1220696               3.3217
        15                          0.1796120               4.8875
        16                          0.2113414               5.7509
        17                          0.2333693               6.3503
        18                          0.2356287               6.4118
        19                          0.3952037              10.7540
        20                          0.6126081              16.6699
      -------------------------------------------------------------
                  HL-Gap            0.1882064 Eh            5.1214 eV

     #   Z          covCN         q      C6AA      α(0)
     1   6 C        3.758    -0.122    22.888     6.821
     2   6 C        2.740     0.260    22.627     7.788
     3   7 N        1.778    -0.568    36.610     8.961
     4   8 O        0.857    -0.732    29.584     7.292
     5   1 H        0.925     0.024     2.675     2.558
     6   1 H        0.925     0.025     2.660     2.551
     7   1 H        0.925     0.035     2.512     2.479
     8   1 H        0.859     0.078     2.011     2.221

Wiberg/Mayer (AO) data.
largest (>0.10) Wiberg bond orders for each atom

     #   Z sym  total        # sym  WBO       # sym  WBO       # sym  WBO
 ---------------------------------------------------------------------------
     1   6 C    3.996 --     7 H    0.990     5 H    0.982     6 H    0.980
                             2 C    0.966
     2   6 C    3.954 --     3 N    1.580     4 O    1.401     1 C    0.966
     3   7 N    2.812 --     2 C    1.580     8 H    0.968     4 O    0.229
     4   8 O    1.692 --     2 C    1.401     3 N    0.229
     5   1 H    0.999 --     1 C    0.982
     6   1 H    0.999 --     1 C    0.980
     7   1 H    0.999 --     1 C    0.990
     8   1 H    0.994 --     3 N    0.968
 ---------------------------------------------------------------------------

molecular dipole:
                 x           y           z       tot (Debye)
 q only:        4.057      -1.193       1.916
   full:        3.996      -0.982       1.807      11.422

 projected vibrational frequencies (cm⁻¹)
eigval :       -0.00    -0.00    -0.00    -0.00     0.00     0.00
eigval :      104.93   410.66   543.81   552.03   809.41   889.43
eigval :      996.10  1004.92  1234.35  1337.38  1379.94  1471.50
eigval :     1476.98  1631.56  3001.62  3012.49  3054.15  3246.67

   temp. (K)  partition function   enthalpy   heat capacity  entropy
                                   cal/mol     cal/K/mol   cal/K/mol   J/K/mol
 298.15  VIB   3.58                 1040.397      8.177      5.999
         ROT  0.354E+05              888.752      2.981     23.797
         INT  0.127E+06             1929.149     11.158     29.796
         TR   0.428E+27             1481.254      4.968     38.080
         TOT                        3410.4032    16.1257    67.8759   283.9929

       T/K    H(0)-H(T)+PV         H(T)/Eh          T*S/Eh         G(T)/Eh
   ------------------------------------------------------------------------
    298.15    0.543482E-02    0.650270E-01    0.322500E-01    0.327769E-01
   ------------------------------------------------------------------------

         :::::::::::::::::::::::::::::::::::::::::::::::::::::
         ::                  THERMODYNAMIC                  ::
         :::::::::::::::::::::::::::::::::::::::::::::::::::::
         :: total free energy         -13.572999232231 Eh   ::
         ::.................................................::
         :: total energy              -13.605776140762 Eh   ::
         :: zero point energy           0.059592134172 Eh   ::
         :: G(RRHO) w/o ZPVE           -0.026815225640 Eh   ::
         :: G(RRHO) contrib.            0.032776908531 Eh   ::
         :::::::::::::::::::::::::::::::::::::::::::::::::::::

           -------------------------------------------------
          | TOTAL ENERGY              -13.605776140762 Eh   |
          | TOTAL ENTHALPY            -13.540749183184 Eh   |
          | TOTAL FREE ENERGY         -13.572999232231 Eh   |
          | GRADIENT NORM               0.000853486057 Eh/α |
          | HOMO-LUMO GAP               5.121358155211 eV   |
           -------------------------------------------------

 * finished run on 2025/10/18 at 04:32:16.094
