   * xtb version 6.7.1 (edcfbbe) compiled by 'albert@albert-system' on 2024-07-22

   ID    Z sym.   atoms
    1    6 C      1
    2    8 O      2, 3, 5
    3    1 H      4, 6, 7

          program call               : xtb tb_lite_results_shiftn0p15_gp157_b0_rot0_complex.xyz --ohess --chrg -1 --alpb water
      * Solvation model:               ALPB
        Solvent                        water
        Solvent mass                       1.8000E+01 g/mol
          :  Hamiltonian                  GFN2-xTB          :
 * total energy  :   -16.1957542 Eh     change       -0.4889955E-10 Eh
 * total energy  :   -16.1988685 Eh     change       -0.3114343E-02 Eh
 * total energy  :   -16.1992150 Eh     change       -0.3464910E-03 Eh
 * total energy  :   -16.1993050 Eh     change       -0.9001421E-04 Eh
 * total energy  :   -16.1993513 Eh     change       -0.4629184E-04 Eh
 * total energy  :   -16.1981099 Eh     change        0.1241361E-02 Eh
 * total energy  :   -16.1993644 Eh     change       -0.1254485E-02 Eh
 * total energy  :   -16.1993672 Eh     change       -0.2795710E-05 Eh
   *** GEOMETRY OPTIMIZATION CONVERGED AFTER 8 ITERATIONS ***

 final structure:
================
7
 xtb: 6.7.1 (edcfbbe)
C           -3.17311369758209        2.33121832591997       -0.00032970111402
O           -3.37946041027799        3.54954604821948        0.00078570307946
O           -2.10790819521194        1.72063624544372        0.00031274087268
H           -4.12615812333431        1.67900144294883       -0.00053082448939
O           -0.94701051650392        4.90913969886843       -0.00042271083458
H           -1.84610214495149        4.52415769819194        0.00010313458634
H           -0.35552443503454        4.14893338144898        0.00004696345403

          :  Hamiltonian                  GFN2-xTB          :
         :: gradient norm              0.000506409738 Eh/a0 ::
         :: HOMO-LUMO gap              5.368109938830 eV    ::
         :: SCC energy               -16.301848617388 Eh    ::
         :: -> dispersion             -0.002706886799 Eh    ::
         :: -> Gsolv                  -0.108016811072 Eh    ::
         :: repulsion energy           0.102481390050 Eh    ::

    * Orbital Energies and Occupations

         #    Occupation            Energy/Eh            Energy/eV
      -------------------------------------------------------------
         1        2.0000           -0.6921160             -18.8334
         2        2.0000           -0.6806967             -18.5227
         3        2.0000           -0.6566927             -17.8695
         4        2.0000           -0.5922473             -16.1159
         5        2.0000           -0.5468443             -14.8804
         6        2.0000           -0.5371765             -14.6173
         7        2.0000           -0.5306737             -14.4404
         8        2.0000           -0.5128134             -13.9544
         9        2.0000           -0.4877955             -13.2736
        10        2.0000           -0.4232977             -11.5185
        11        2.0000           -0.4217691             -11.4769
        12        2.0000           -0.4082153             -11.1081
        13        2.0000           -0.3874408             -10.5428 (HOMO)
        14                         -0.1901665              -5.1747 (LUMO)
        15                          0.1068259               2.9069
        16                          0.1327951               3.6135
        17                          0.2836865               7.7195
        18                          0.4175290              11.3615
        19                          0.6507410              17.7076
      -------------------------------------------------------------
                  HL-Gap            0.1972743 Eh            5.3681 eV

     #   Z          covCN         q      C6AA      α(0)
     1   6 C        2.621     0.402    20.234     7.357
     2   8 O        0.856    -0.611    26.383     6.887
     3   8 O        0.856    -0.601    26.151     6.856
     4   1 H        0.910    -0.155     7.973     4.417
     5   8 O        1.608    -0.679    27.155     7.033
     6   1 H        0.803     0.310     0.693     1.308
     7   1 H        0.805     0.335     0.624     1.241

Wiberg/Mayer (AO) data.
largest (>0.10) Wiberg bond orders for each atom

     #   Z sym  total        # sym  WBO       # sym  WBO       # sym  WBO
 ---------------------------------------------------------------------------
     1   6 C    3.941 --     3 O    1.556     2 O    1.512     4 H    0.872
     2   8 O    1.853 --     1 C    1.512     3 O    0.232
     3   8 O    1.843 --     1 C    1.556     2 O    0.232
     4   1 H    0.976 --     1 C    0.872
     5   8 O    1.770 --     7 H    0.887     6 H    0.859
     6   1 H    0.904 --     5 O    0.859
     7   1 H    0.888 --     5 O    0.887
 ---------------------------------------------------------------------------

molecular dipole:
                 x           y           z       tot (Debye)
 q only:        5.008      -5.800      -0.001
   full:        4.728      -6.154      -0.001      19.725

 projected vibrational frequencies (cm⁻¹)
eigval :       -0.00    -0.00    -0.00     0.00     0.00     0.00
eigval :       49.53   102.36   145.90   204.35   337.68   657.16
eigval :      700.42   945.29  1266.57  1454.11  1509.19  1747.12
eigval :     2183.00  3258.55  3598.66

   temp. (K)  partition function   enthalpy   heat capacity  entropy
                                   cal/mol     cal/K/mol   cal/K/mol   J/K/mol
 298.15  VIB   51.9                 2171.282     11.243     14.443
         ROT  0.667E+05              888.752      2.981     25.056
         INT  0.347E+07             3060.034     14.224     39.499
         TR   0.484E+27             1481.254      4.968     38.325
         TOT                        4541.2881    19.1922    77.8239   325.6150

       T/K    H(0)-H(T)+PV         H(T)/Eh          T*S/Eh         G(T)/Eh
   ------------------------------------------------------------------------
    298.15    0.723700E-02    0.486083E-01    0.369766E-01    0.116317E-01
   ------------------------------------------------------------------------

         :::::::::::::::::::::::::::::::::::::::::::::::::::::
         ::                  THERMODYNAMIC                  ::
         :::::::::::::::::::::::::::::::::::::::::::::::::::::
         :: total free energy         -16.187735558909 Eh   ::
         ::.................................................::
         :: total energy              -16.199367228227 Eh   ::
         :: zero point energy           0.041371293393 Eh   ::
         :: G(RRHO) w/o ZPVE           -0.029739624074 Eh   ::
         :: G(RRHO) contrib.            0.011631669319 Eh   ::
         :::::::::::::::::::::::::::::::::::::::::::::::::::::

           -------------------------------------------------
          | TOTAL ENERGY              -16.199367228227 Eh   |
          | TOTAL ENTHALPY            -16.150758931549 Eh   |
          | TOTAL FREE ENERGY         -16.187735558909 Eh   |
          | GRADIENT NORM               0.000506231721 Eh/α |
          | HOMO-LUMO GAP               5.368107078233 eV   |
           -------------------------------------------------

 * finished run on 2025/10/17 at 02:24:00.299
normal termination of xtb
