   * xtb version 6.7.1 (edcfbbe) compiled by 'albert@albert-system' on 2024-07-22

   ID    Z sym.   atoms
    1    6 C      1
    2    8 O      2, 3, 5
    3    1 H      4, 6, 7

          program call               : xtb tb_lite_results_original_gp157_b0_rot0_complex.xyz --ohess --chrg -1 --alpb water
      * Solvation model:               ALPB
        Solvent                        water
        Solvent mass                       1.8000E+01 g/mol
          :  Hamiltonian                  GFN2-xTB          :
 * total energy  :   -16.1966986 Eh     change       -0.2604139E-10 Eh
 * total energy  :   -16.1990236 Eh     change       -0.2324957E-02 Eh
 * total energy  :   -16.1992784 Eh     change       -0.2547855E-03 Eh
 * total energy  :   -16.1993345 Eh     change       -0.5613252E-04 Eh
 * total energy  :   -16.1992743 Eh     change        0.6019352E-04 Eh
 * total energy  :   -16.1991645 Eh     change        0.1097644E-03 Eh
 * total energy  :   -16.1993593 Eh     change       -0.1947954E-03 Eh
 * total energy  :   -16.1993656 Eh     change       -0.6309122E-05 Eh
 * total energy  :   -16.1993669 Eh     change       -0.1272840E-05 Eh
   *** GEOMETRY OPTIMIZATION CONVERGED AFTER 9 ITERATIONS ***

 final structure:
================
7
 xtb: 6.7.1 (edcfbbe)
C           -3.12727638288833        2.36472829875752        0.00030977084252
O           -3.31340204440885        3.58620957578036       -0.00015913393710
O           -2.07299472075279        1.73563350263742       -0.00014868387505
H           -4.09191556282346        1.72854298881154       -0.00009425317189
O           -0.87353734726793        4.93508273606766        0.00007048711953
H           -1.77486848169697        4.55599673609934       -0.00001158247349
H           -0.28611147329954        4.17170506587762       -0.00000129895000

          :  Hamiltonian                  GFN2-xTB          :
         :: gradient norm              0.000418142016 Eh/a0 ::
         :: HOMO-LUMO gap              5.368491122931 eV    ::
         :: SCC energy               -16.301865507370 Eh    ::
         :: -> dispersion             -0.002701379053 Eh    ::
         :: -> Gsolv                  -0.108104639522 Eh    ::
         :: repulsion energy           0.102498605219 Eh    ::

    * Orbital Energies and Occupations

         #    Occupation            Energy/Eh            Energy/eV
      -------------------------------------------------------------
         1        2.0000           -0.6920790             -18.8324
         2        2.0000           -0.6807093             -18.5230
         3        2.0000           -0.6567830             -17.8720
         4        2.0000           -0.5922337             -16.1155
         5        2.0000           -0.5467659             -14.8783
         6        2.0000           -0.5373431             -14.6218
         7        2.0000           -0.5306790             -14.4405
         8        2.0000           -0.5128630             -13.9557
         9        2.0000           -0.4877799             -13.2732
        10        2.0000           -0.4233650             -11.5203
        11        2.0000           -0.4217934             -11.4776
        12        2.0000           -0.4082434             -11.1089
        13        2.0000           -0.3873925             -10.5415 (HOMO)
        14                         -0.1901041              -5.1730 (LUMO)
        15                          0.1060338               2.8853
        16                          0.1325618               3.6072
        17                          0.2838653               7.7244
        18                          0.4173565              11.3568
        19                          0.6517115              17.7340
      -------------------------------------------------------------
                  HL-Gap            0.1972884 Eh            5.3685 eV

     #   Z          covCN         q      C6AA      α(0)
     1   6 C        2.621     0.402    20.230     7.357
     2   8 O        0.856    -0.611    26.380     6.886
     3   8 O        0.856    -0.601    26.150     6.856
     4   1 H        0.910    -0.156     8.014     4.428
     5   8 O        1.608    -0.679    27.157     7.033
     6   1 H        0.803     0.310     0.693     1.308
     7   1 H        0.805     0.335     0.623     1.240

Wiberg/Mayer (AO) data.
largest (>0.10) Wiberg bond orders for each atom

     #   Z sym  total        # sym  WBO       # sym  WBO       # sym  WBO
 ---------------------------------------------------------------------------
     1   6 C    3.941 --     3 O    1.556     2 O    1.512     4 H    0.872
     2   8 O    1.853 --     1 C    1.512     3 O    0.232
     3   8 O    1.843 --     1 C    1.556     2 O    0.232
     4   1 H    0.976 --     1 C    0.872
     5   8 O    1.769 --     7 H    0.887     6 H    0.860
     6   1 H    0.904 --     5 O    0.860
     7   1 H    0.887 --     5 O    0.887
 ---------------------------------------------------------------------------

molecular dipole:
                 x           y           z       tot (Debye)
 q only:        4.912      -5.846       0.001
   full:        4.628      -6.197       0.001      19.657

 projected vibrational frequencies (cm⁻¹)
eigval :       -0.00    -0.00    -0.00    -0.00     0.00     0.00
eigval :       48.32   102.29   149.75   203.64   343.63   654.05
eigval :      699.47   946.00  1265.13  1452.08  1509.61  1747.65
eigval :     2176.62  3262.81  3598.30

   temp. (K)  partition function   enthalpy   heat capacity  entropy
                                   cal/mol     cal/K/mol   cal/K/mol   J/K/mol
 298.15  VIB   52.0                 2166.348     11.214     14.383
         ROT  0.671E+05              888.752      2.981     25.067
         INT  0.349E+07             3055.100     14.195     39.450
         TR   0.484E+27             1481.254      4.968     38.325
         TOT                        4536.3540    19.1628    77.7750   325.4108

       T/K    H(0)-H(T)+PV         H(T)/Eh          T*S/Eh         G(T)/Eh
   ------------------------------------------------------------------------
    298.15    0.722914E-02    0.485992E-01    0.369534E-01    0.116457E-01
   ------------------------------------------------------------------------

         :::::::::::::::::::::::::::::::::::::::::::::::::::::
         ::                  THERMODYNAMIC                  ::
         :::::::::::::::::::::::::::::::::::::::::::::::::::::
         :: total free energy         -16.187721185484 Eh   ::
         ::.................................................::
         :: total energy              -16.199366902249 Eh   ::
         :: zero point energy           0.041370010548 Eh   ::
         :: G(RRHO) w/o ZPVE           -0.029724293784 Eh   ::
         :: G(RRHO) contrib.            0.011645716765 Eh   ::
         :::::::::::::::::::::::::::::::::::::::::::::::::::::

           -------------------------------------------------
          | TOTAL ENERGY              -16.199366902249 Eh   |
          | TOTAL ENTHALPY            -16.150767751387 Eh   |
          | TOTAL FREE ENERGY         -16.187721185484 Eh   |
          | GRADIENT NORM               0.000418174164 Eh/α |
          | HOMO-LUMO GAP               5.368489731646 eV   |
           -------------------------------------------------

 * finished run on 2025/10/17 at 02:24:02.011
normal termination of xtb
