   * xtb version 6.7.1 (edcfbbe) compiled by 'albert@albert-system' on 2024-07-22

   ID    Z sym.   atoms
    1    6 C      1
    2    8 O      2, 3, 5
    3    1 H      4, 6, 7

          program call               : xtb tb_lite_results_shiftn0p2_gp157_b0_rot0_complex.xyz --ohess --chrg -1 --alpb water
      * Solvation model:               ALPB
        Solvent                        water
        Solvent mass                       1.8000E+01 g/mol
          :  Hamiltonian                  GFN2-xTB          :
 * total energy  :   -16.1948967 Eh     change       -0.5390532E-10 Eh
 * total energy  :   -16.1986524 Eh     change       -0.3755688E-02 Eh
 * total energy  :   -16.1991221 Eh     change       -0.4697141E-03 Eh
 * total energy  :   -16.1992678 Eh     change       -0.1456812E-03 Eh
 * total energy  :   -16.1993507 Eh     change       -0.8291805E-04 Eh
 * total energy  :   -16.1985905 Eh     change        0.7602480E-03 Eh
 * total energy  :   -16.1993644 Eh     change       -0.7738724E-03 Eh
 * total energy  :   -16.1993666 Eh     change       -0.2231726E-05 Eh
   *** GEOMETRY OPTIMIZATION CONVERGED AFTER 8 ITERATIONS ***

 final structure:
================
7
 xtb: 6.7.1 (edcfbbe)
C           -3.18735855362581        2.32058975813755       -0.00014928521552
O           -3.40320584636211        3.53712628444928        0.00045251142095
O           -2.11806178418293        1.71750591169509        0.00023047681682
H           -4.13634521685469        1.66083349635975       -0.00044324086798
O           -0.97132218941029        4.90013429346250       -0.00021677355437
H           -1.87033938544898        4.51528286384894        0.00006018930944
H           -0.38036838359763        4.13940487875821        0.00003142764518

          :  Hamiltonian                  GFN2-xTB          :
         :: gradient norm              0.000620783339 Eh/a0 ::
         :: HOMO-LUMO gap              5.369474862010 eV    ::
         :: SCC energy               -16.301849191546 Eh    ::
         :: -> dispersion             -0.002711116079 Eh    ::
         :: -> Gsolv                  -0.107966405150 Eh    ::
         :: repulsion energy           0.102482589454 Eh    ::

    * Orbital Energies and Occupations

         #    Occupation            Energy/Eh            Energy/eV
      -------------------------------------------------------------
         1        2.0000           -0.6922126             -18.8361
         2        2.0000           -0.6807944             -18.5254
         3        2.0000           -0.6567286             -17.8705
         4        2.0000           -0.5922626             -16.1163
         5        2.0000           -0.5469543             -14.8834
         6        2.0000           -0.5371478             -14.6165
         7        2.0000           -0.5307906             -14.4435
         8        2.0000           -0.5128823             -13.9562
         9        2.0000           -0.4879005             -13.2764
        10        2.0000           -0.4233568             -11.5201
        11        2.0000           -0.4218601             -11.4794
        12        2.0000           -0.4083529             -11.1118
        13        2.0000           -0.3874754             -10.5437 (HOMO)
        14                         -0.1901508              -5.1743 (LUMO)
        15                          0.1060242               2.8851
        16                          0.1325919               3.6080
        17                          0.2834686               7.7136
        18                          0.4173477              11.3566
        19                          0.6515031              17.7283
      -------------------------------------------------------------
                  HL-Gap            0.1973245 Eh            5.3695 eV

     #   Z          covCN         q      C6AA      α(0)
     1   6 C        2.621     0.402    20.230     7.357
     2   8 O        0.856    -0.610    26.378     6.886
     3   8 O        0.856    -0.601    26.143     6.855
     4   1 H        0.910    -0.156     8.019     4.430
     5   8 O        1.608    -0.679    27.148     7.032
     6   1 H        0.803     0.310     0.693     1.308
     7   1 H        0.805     0.335     0.625     1.241

Wiberg/Mayer (AO) data.
largest (>0.10) Wiberg bond orders for each atom

     #   Z sym  total        # sym  WBO       # sym  WBO       # sym  WBO
 ---------------------------------------------------------------------------
     1   6 C    3.941 --     3 O    1.556     2 O    1.512     4 H    0.872
     2   8 O    1.853 --     1 C    1.512     3 O    0.232
     3   8 O    1.843 --     1 C    1.556     2 O    0.232
     4   1 H    0.976 --     1 C    0.872
     5   8 O    1.770 --     7 H    0.887     6 H    0.859
     6   1 H    0.904 --     5 O    0.859
     7   1 H    0.888 --     5 O    0.887
 ---------------------------------------------------------------------------

molecular dipole:
                 x           y           z       tot (Debye)
 q only:        5.043      -5.782      -0.000
   full:        4.763      -6.139      -0.001      19.749

 projected vibrational frequencies (cm⁻¹)
eigval :       -0.00    -0.00    -0.00    -0.00     0.00     0.00
eigval :       47.30   103.55   147.65   203.12   336.74   655.28
eigval :      700.05   945.70  1265.22  1454.75  1509.31  1748.24
eigval :     2174.38  3260.58  3597.48

   temp. (K)  partition function   enthalpy   heat capacity  entropy
                                   cal/mol     cal/K/mol   cal/K/mol   J/K/mol
 298.15  VIB   53.5                 2173.378     11.207     14.425
         ROT  0.666E+05              888.752      2.981     25.053
         INT  0.356E+07             3062.131     14.188     39.478
         TR   0.484E+27             1481.254      4.968     38.325
         TOT                        4543.3847    19.1557    77.8027   325.5263

       T/K    H(0)-H(T)+PV         H(T)/Eh          T*S/Eh         G(T)/Eh
   ------------------------------------------------------------------------
    298.15    0.724034E-02    0.485876E-01    0.369666E-01    0.116211E-01
   ------------------------------------------------------------------------

         :::::::::::::::::::::::::::::::::::::::::::::::::::::
         ::                  THERMODYNAMIC                  ::
         :::::::::::::::::::::::::::::::::::::::::::::::::::::
         :: total free energy         -16.187745528453 Eh   ::
         ::.................................................::
         :: total energy              -16.199366603394 Eh   ::
         :: zero point energy           0.041347284316 Eh   ::
         :: G(RRHO) w/o ZPVE           -0.029726209376 Eh   ::
         :: G(RRHO) contrib.            0.011621074940 Eh   ::
         :::::::::::::::::::::::::::::::::::::::::::::::::::::

           -------------------------------------------------
          | TOTAL ENERGY              -16.199366603394 Eh   |
          | TOTAL ENTHALPY            -16.150778974678 Eh   |
          | TOTAL FREE ENERGY         -16.187745528453 Eh   |
          | GRADIENT NORM               0.000620795530 Eh/α |
          | HOMO-LUMO GAP               5.369474069184 eV   |
           -------------------------------------------------

 * finished run on 2025/10/17 at 02:24:02.864
normal termination of xtb
