   * xtb version 6.7.1 (edcfbbe) compiled by 'albert@albert-system' on 2024-07-22

   ID    Z sym.   atoms
    1    6 C      1
    2    8 O      2, 3, 5
    3    1 H      4, 6, 7

          program call               : xtb tb_lite_results_shiftn0p1_gp157_b0_rot0_complex.xyz --ohess --chrg -1 --alpb water
      * Solvation model:               ALPB
        Solvent                        water
        Solvent mass                       1.8000E+01 g/mol
          :  Hamiltonian                  GFN2-xTB          :
 * total energy  :   -16.1962963 Eh     change       -0.4691003E-10 Eh
 * total energy  :   -16.1989876 Eh     change       -0.2691306E-02 Eh
 * total energy  :   -16.1992633 Eh     change       -0.2756885E-03 Eh
 * total energy  :   -16.1993249 Eh     change       -0.6167380E-04 Eh
 * total energy  :   -16.1993449 Eh     change       -0.1999104E-04 Eh
 * total energy  :   -16.1983490 Eh     change        0.9958794E-03 Eh
 * total energy  :   -16.1993658 Eh     change       -0.1016734E-02 Eh
 * total energy  :   -16.1993675 Eh     change       -0.1772294E-05 Eh
   *** GEOMETRY OPTIMIZATION CONVERGED AFTER 8 ITERATIONS ***

 final structure:
================
7
 xtb: 6.7.1 (edcfbbe)
C           -3.15812339395416        2.34290992474099       -0.00028655369863
O           -3.35772116657147        3.56238606856480        0.00031320301318
O           -2.09610134455282        1.72668242085037        0.00021014366668
H           -4.11435391687448        1.69597879399664       -0.00024483486314
O           -0.92261571464447        4.91685248110389       -0.00019274227745
H           -1.82226391653865        4.53372662966862        0.00015207316481
H           -0.33237423317408        4.15585187644608        0.00001401654907

          :  Hamiltonian                  GFN2-xTB          :
         :: gradient norm              0.000387690723 Eh/a0 ::
         :: HOMO-LUMO gap              5.367736944299 eV    ::
         :: SCC energy               -16.301904419066 Eh    ::
         :: -> dispersion             -0.002704804624 Eh    ::
         :: -> Gsolv                  -0.108047641824 Eh    ::
         :: repulsion energy           0.102536871960 Eh    ::

    * Orbital Energies and Occupations

         #    Occupation            Energy/Eh            Energy/eV
      -------------------------------------------------------------
         1        2.0000           -0.6920678             -18.8321
         2        2.0000           -0.6806518             -18.5215
         3        2.0000           -0.6567168             -17.8702
         4        2.0000           -0.5922333             -16.1155
         5        2.0000           -0.5467890             -14.8789
         6        2.0000           -0.5372224             -14.6186
         7        2.0000           -0.5306204             -14.4389
         8        2.0000           -0.5127897             -13.9537
         9        2.0000           -0.4877660             -13.2728
        10        2.0000           -0.4232939             -11.5184
        11        2.0000           -0.4217341             -11.4760
        12        2.0000           -0.4081550             -11.1065
        13        2.0000           -0.3874162             -10.5421 (HOMO)
        14                         -0.1901555              -5.1744 (LUMO)
        15                          0.1071484               2.9157
        16                          0.1330414               3.6202
        17                          0.2841043               7.7309
        18                          0.4176190              11.3640
        19                          0.6505474              17.7023
      -------------------------------------------------------------
                  HL-Gap            0.1972606 Eh            5.3677 eV

     #   Z          covCN         q      C6AA      α(0)
     1   6 C        2.621     0.401    20.235     7.358
     2   8 O        0.856    -0.611    26.385     6.887
     3   8 O        0.856    -0.601    26.155     6.857
     4   1 H        0.910    -0.155     7.960     4.413
     5   8 O        1.608    -0.679    27.157     7.033
     6   1 H        0.803     0.310     0.693     1.308
     7   1 H        0.805     0.335     0.624     1.241

Wiberg/Mayer (AO) data.
largest (>0.10) Wiberg bond orders for each atom

     #   Z sym  total        # sym  WBO       # sym  WBO       # sym  WBO
 ---------------------------------------------------------------------------
     1   6 C    3.941 --     3 O    1.556     2 O    1.512     4 H    0.872
     2   8 O    1.853 --     1 C    1.512     3 O    0.232
     3   8 O    1.842 --     1 C    1.556     2 O    0.232
     4   1 H    0.976 --     1 C    0.872
     5   8 O    1.769 --     7 H    0.887     6 H    0.859
     6   1 H    0.904 --     5 O    0.859
     7   1 H    0.888 --     5 O    0.887
 ---------------------------------------------------------------------------

molecular dipole:
                 x           y           z       tot (Debye)
 q only:        4.974      -5.818      -0.000
   full:        4.693      -6.171      -0.001      19.705

 projected vibrational frequencies (cm⁻¹)
eigval :       -0.00    -0.00    -0.00    -0.00    -0.00     0.00
eigval :       49.50   100.24   143.55   204.55   337.45   654.92
eigval :      700.27   945.08  1267.04  1453.60  1508.71  1746.65
eigval :     2186.03  3261.70  3600.59

   temp. (K)  partition function   enthalpy   heat capacity  entropy
                                   cal/mol     cal/K/mol   cal/K/mol   J/K/mol
 298.15  VIB   53.4                 2177.125     11.247     14.513
         ROT  0.668E+05              888.752      2.981     25.059
         INT  0.357E+07             3065.877     14.228     39.572
         TR   0.484E+27             1481.254      4.968     38.325
         TOT                        4547.1314    19.1960    77.8966   325.9193

       T/K    H(0)-H(T)+PV         H(T)/Eh          T*S/Eh         G(T)/Eh
   ------------------------------------------------------------------------
    298.15    0.724632E-02    0.486175E-01    0.370112E-01    0.116064E-01
   ------------------------------------------------------------------------

         :::::::::::::::::::::::::::::::::::::::::::::::::::::
         ::                  THERMODYNAMIC                  ::
         :::::::::::::::::::::::::::::::::::::::::::::::::::::
         :: total free energy         -16.187761185620 Eh   ::
         ::.................................................::
         :: total energy              -16.199367547678 Eh   ::
         :: zero point energy           0.041371230548 Eh   ::
         :: G(RRHO) w/o ZPVE           -0.029764868490 Eh   ::
         :: G(RRHO) contrib.            0.011606362058 Eh   ::
         :::::::::::::::::::::::::::::::::::::::::::::::::::::

           -------------------------------------------------
          | TOTAL ENERGY              -16.199367547678 Eh   |
          | TOTAL ENTHALPY            -16.150750002009 Eh   |
          | TOTAL FREE ENERGY         -16.187761185620 Eh   |
          | GRADIENT NORM               0.000387528472 Eh/α |
          | HOMO-LUMO GAP               5.367734811924 eV   |
           -------------------------------------------------

 * finished run on 2025/10/17 at 02:23:59.541
normal termination of xtb
