   * xtb version 6.7.1 (edcfbbe) compiled by 'albert@albert-system' on 2024-07-22

   ID    Z sym.   atoms
    1    6 C      1
    2    8 O      2, 3
    3    1 H      4

          program call               : xtb tb_lite_results_shiftn0p2_gp157_b0_rot0_solute.xyz --ohess --chrg -1
          :  Hamiltonian                  GFN2-xTB          :
 * total energy  :   -10.9955634 Eh     change       -0.8587087E-10 Eh
 * total energy  :   -10.9975907 Eh     change       -0.2027330E-02 Eh
 * total energy  :   -10.9981367 Eh     change       -0.5459474E-03 Eh
 * total energy  :   -10.9982709 Eh     change       -0.1342318E-03 Eh
 * total energy  :   -10.9983023 Eh     change       -0.3139276E-04 Eh
 * total energy  :   -10.9983026 Eh     change       -0.2917809E-06 Eh
   *** GEOMETRY OPTIMIZATION CONVERGED AFTER 6 ITERATIONS ***

 final structure:
================
4
 xtb: 6.7.1 (edcfbbe)
C           -3.13030437327869        2.37938075424256       -0.00000958649702
O           -3.33536785657071        3.59202064206533        0.00000187933072
O           -2.08763038016611        1.72717290024491       -0.00000595010527
H           -4.11934245251270        1.71762974999678       -0.00002734284956

          :  Hamiltonian                  GFN2-xTB          :
         :: gradient norm              0.000190979985 Eh/a0 ::
         :: HOMO-LUMO gap              5.348099201674 eV    ::
         :: SCC energy               -11.068207377330 Eh    ::
         :: -> dispersion             -0.001530947513 Eh    ::
         :: repulsion energy           0.069904795727 Eh    ::

    * Orbital Energies and Occupations

         #    Occupation            Energy/Eh            Energy/eV
      -------------------------------------------------------------
         1        2.0000           -0.4600838             -12.5195
         2        2.0000           -0.4501257             -12.2485
         3        2.0000           -0.3600416              -9.7972
         4        2.0000           -0.3160656              -8.6006
         5        2.0000           -0.3005929              -8.1795
         6        2.0000           -0.2820872              -7.6760
         7        2.0000           -0.1908017              -5.1920
         8        2.0000           -0.1779120              -4.8412
         9        2.0000           -0.1559126              -4.2426 (HOMO)
        10                          0.0406265               1.1055 (LUMO)
        11                          0.3009236               8.1885
        12                          0.6304402              17.1552
        13                          0.9004316              24.5020
      -------------------------------------------------------------
                  HL-Gap            0.1965390 Eh            5.3481 eV

     #   Z          covCN         q      C6AA      α(0)
     1   6 C        2.605     0.388    20.458     7.397
     2   8 O        0.856    -0.595    25.999     6.836
     3   8 O        0.856    -0.595    25.999     6.836
     4   1 H        0.894    -0.198    10.668     5.111

Wiberg/Mayer (AO) data.
largest (>0.10) Wiberg bond orders for each atom

     #   Z sym  total        # sym  WBO       # sym  WBO       # sym  WBO
 ---------------------------------------------------------------------------
     1   6 C    3.944 --     3 O    1.551     2 O    1.551     4 H    0.842
     2   8 O    1.848 --     1 C    1.551     3 O    0.238
     3   8 O    1.848 --     1 C    1.551     2 O    0.238
     4   1 H    0.961 --     1 C    0.842
 ---------------------------------------------------------------------------

molecular dipole:
                 x           y           z       tot (Debye)
 q only:        5.343      -4.879      -0.000
   full:        5.144      -5.012      -0.000      18.256

 projected vibrational frequencies (cm⁻¹)
eigval :       -0.00    -0.00     0.00     0.00     0.00     0.00
eigval :      704.28   948.29  1273.95  1465.57  1830.54  1972.67

   temp. (K)  partition function   enthalpy   heat capacity  entropy
                                   cal/mol     cal/K/mol   cal/K/mol   J/K/mol
 298.15  VIB   1.05                  110.364      1.540      0.465
         ROT  0.348E+04              888.752      2.981     19.189
         INT  0.365E+04              999.117      4.521     19.654
         TR   0.292E+27             1481.254      4.968     37.322
         TOT                        2480.3704     9.4891    56.9758   238.3868

       T/K    H(0)-H(T)+PV         H(T)/Eh          T*S/Eh         G(T)/Eh
   ------------------------------------------------------------------------
    298.15    0.395272E-02    0.226230E-01    0.270710E-01   -0.444804E-02
   ------------------------------------------------------------------------

         :::::::::::::::::::::::::::::::::::::::::::::::::::::
         ::                  THERMODYNAMIC                  ::
         :::::::::::::::::::::::::::::::::::::::::::::::::::::
         :: total free energy         -11.002750622806 Eh   ::
         ::.................................................::
         :: total energy              -10.998302581603 Eh   ::
         :: zero point energy           0.018670284207 Eh   ::
         :: G(RRHO) w/o ZPVE           -0.023118325410 Eh   ::
         :: G(RRHO) contrib.           -0.004448041203 Eh   ::
         :::::::::::::::::::::::::::::::::::::::::::::::::::::

           -------------------------------------------------
          | TOTAL ENERGY              -10.998302581603 Eh   |
          | TOTAL ENTHALPY            -10.975679575498 Eh   |
          | TOTAL FREE ENERGY         -11.002750622806 Eh   |
          | GRADIENT NORM               0.000190976611 Eh/α |
          | HOMO-LUMO GAP               5.348099612837 eV   |
           -------------------------------------------------

 * finished run on 2025/10/17 at 02:24:03.583
normal termination of xtb
