   * xtb version 6.7.1 (edcfbbe) compiled by 'albert@albert-system' on 2024-07-22

   ID    Z sym.   atoms
    1    6 C      1
    2    8 O      2, 3, 5
    3    1 H      4, 6, 7

          program call               : xtb tb_lite_results_shiftn0p05_gp157_b0_rot0_complex.xyz --ohess --chrg -1 --alpb water
      * Solvation model:               ALPB
        Solvent                        water
        Solvent mass                       1.8000E+01 g/mol
          :  Hamiltonian                  GFN2-xTB          :
 * total energy  :   -16.1965922 Eh     change       -0.3625544E-10 Eh
 * total energy  :   -16.1990347 Eh     change       -0.2442555E-02 Eh
 * total energy  :   -16.1992815 Eh     change       -0.2468367E-03 Eh
 * total energy  :   -16.1993335 Eh     change       -0.5200100E-04 Eh
 * total energy  :   -16.1993174 Eh     change        0.1613011E-04 Eh
 * total energy  :   -16.1989160 Eh     change        0.4014478E-03 Eh
 * total energy  :   -16.1993666 Eh     change       -0.4506347E-03 Eh
 * total energy  :   -16.1993677 Eh     change       -0.1073692E-05 Eh
   *** GEOMETRY OPTIMIZATION CONVERGED AFTER 8 ITERATIONS ***

 final structure:
================
7
 xtb: 6.7.1 (edcfbbe)
C           -3.14248969682198        2.35421652249758       -0.00028185476468
O           -3.33593000415481        3.57462350114331        0.00000491544006
O           -2.08427181302045        1.73158437307642        0.00009952526289
H           -4.10315837229901        1.71217312288959        0.00015322513433
O           -0.89807040250997        4.92553695136979       -0.00003730380350
H           -1.79843644344816        4.54469115715779        0.00002618738296
H           -0.30947311746963        4.16331792156696        0.00000061090247

          :  Hamiltonian                  GFN2-xTB          :
         :: gradient norm              0.000275375243 Eh/a0 ::
         :: HOMO-LUMO gap              5.367533470663 eV    ::
         :: SCC energy               -16.301894198393 Eh    ::
         :: -> dispersion             -0.002703915354 Eh    ::
         :: -> Gsolv                  -0.108069347584 Eh    ::
         :: repulsion energy           0.102526520231 Eh    ::

    * Orbital Energies and Occupations

         #    Occupation            Energy/Eh            Energy/eV
      -------------------------------------------------------------
         1        2.0000           -0.6920973             -18.8329
         2        2.0000           -0.6807102             -18.5231
         3        2.0000           -0.6567842             -17.8720
         4        2.0000           -0.5922347             -16.1155
         5        2.0000           -0.5468050             -14.8793
         6        2.0000           -0.5373021             -14.6207
         7        2.0000           -0.5306799             -14.4405
         8        2.0000           -0.5128547             -13.9555
         9        2.0000           -0.4877980             -13.2737
        10        2.0000           -0.4233562             -11.5201
        11        2.0000           -0.4217982             -11.4777
        12        2.0000           -0.4082570             -11.1092
        13        2.0000           -0.3874161             -10.5421 (HOMO)
        14                         -0.1901629              -5.1746 (LUMO)
        15                          0.1061946               2.8897
        16                          0.1329155               3.6168
        17                          0.2842925               7.7360
        18                          0.4171901              11.3523
        19                          0.6512733              17.7220
      -------------------------------------------------------------
                  HL-Gap            0.1972532 Eh            5.3675 eV

     #   Z          covCN         q      C6AA      α(0)
     1   6 C        2.621     0.402    20.232     7.357
     2   8 O        0.856    -0.611    26.380     6.886
     3   8 O        0.856    -0.601    26.150     6.856
     4   1 H        0.910    -0.156     8.004     4.426
     5   8 O        1.608    -0.679    27.156     7.033
     6   1 H        0.803     0.310     0.693     1.308
     7   1 H        0.805     0.335     0.624     1.240

Wiberg/Mayer (AO) data.
largest (>0.10) Wiberg bond orders for each atom

     #   Z sym  total        # sym  WBO       # sym  WBO       # sym  WBO
 ---------------------------------------------------------------------------
     1   6 C    3.941 --     3 O    1.556     2 O    1.512     4 H    0.872
     2   8 O    1.853 --     1 C    1.512     3 O    0.232
     3   8 O    1.843 --     1 C    1.556     2 O    0.232
     4   1 H    0.976 --     1 C    0.872
     5   8 O    1.770 --     7 H    0.887     6 H    0.859
     6   1 H    0.904 --     5 O    0.859
     7   1 H    0.888 --     5 O    0.887
 ---------------------------------------------------------------------------

molecular dipole:
                 x           y           z       tot (Debye)
 q only:        4.944      -5.832      -0.000
   full:        4.661      -6.184      -0.000      19.682

 projected vibrational frequencies (cm⁻¹)
eigval :       -0.00    -0.00    -0.00     0.00     0.00     0.00
eigval :       51.02   101.60   144.17   204.40   339.09   652.84
eigval :      699.74   945.91  1265.22  1454.08  1509.10  1747.14
eigval :     2177.48  3265.47  3601.21

   temp. (K)  partition function   enthalpy   heat capacity  entropy
                                   cal/mol     cal/K/mol   cal/K/mol   J/K/mol
 298.15  VIB   51.3                 2172.486     11.280     14.471
         ROT  0.669E+05              888.752      2.981     25.063
         INT  0.343E+07             3061.238     14.261     39.534
         TR   0.484E+27             1481.254      4.968     38.325
         TOT                        4542.4919    19.2287    77.8590   325.7619

       T/K    H(0)-H(T)+PV         H(T)/Eh          T*S/Eh         G(T)/Eh
   ------------------------------------------------------------------------
    298.15    0.723892E-02    0.486070E-01    0.369933E-01    0.116137E-01
   ------------------------------------------------------------------------

         :::::::::::::::::::::::::::::::::::::::::::::::::::::
         ::                  THERMODYNAMIC                  ::
         :::::::::::::::::::::::::::::::::::::::::::::::::::::
         :: total free energy         -16.187754004229 Eh   ::
         ::.................................................::
         :: total energy              -16.199367678487 Eh   ::
         :: zero point energy           0.041368062354 Eh   ::
         :: G(RRHO) w/o ZPVE           -0.029754388097 Eh   ::
         :: G(RRHO) contrib.            0.011613674258 Eh   ::
         :::::::::::::::::::::::::::::::::::::::::::::::::::::

           -------------------------------------------------
          | TOTAL ENERGY              -16.199367678487 Eh   |
          | TOTAL ENTHALPY            -16.150760694519 Eh   |
          | TOTAL FREE ENERGY         -16.187754004229 Eh   |
          | GRADIENT NORM               0.000275365571 Eh/α |
          | HOMO-LUMO GAP               5.367533315976 eV   |
           -------------------------------------------------

 * finished run on 2025/10/17 at 02:24:01.258
normal termination of xtb
