   * xtb version 6.7.1 (edcfbbe) compiled by 'albert@albert-system' on 2024-07-22

   ID    Z sym.   atoms
    1    6 C      1, 2, 5, 7, 9, 11
    2    1 H      3, 6, 8, 10, 12, 14, 15
    3    8 O      4, 13

          program call               : xtb tb_lite_results_shiftn0p15_gp242_b0_rot90_complex.xyz --ohess --chrg -1 --alpb water
      * Solvation model:               ALPB
        Solvent                        water
        Solvent mass                       1.8000E+01 g/mol
          :  Hamiltonian                  GFN2-xTB          :
 * total energy  :   -24.8289970 Eh     change       -0.1794938E-09 Eh
 * total energy  :   -24.8324718 Eh     change       -0.3474798E-02 Eh
 * total energy  :   -24.8328965 Eh     change       -0.4246702E-03 Eh
 * total energy  :   -24.8330828 Eh     change       -0.1863493E-03 Eh
 * total energy  :   -24.8331970 Eh     change       -0.1142042E-03 Eh
 * total energy  :   -24.8332497 Eh     change       -0.5265512E-04 Eh
 * total energy  :   -24.8332952 Eh     change       -0.4550664E-04 Eh
 * total energy  :   -24.8333144 Eh     change       -0.1918302E-04 Eh
 * total energy  :   -24.8333439 Eh     change       -0.2958285E-04 Eh
 * total energy  :   -24.8333764 Eh     change       -0.3246799E-04 Eh
 * total energy  :   -24.8335370 Eh     change       -0.1088138E-04 Eh
 * total energy  :   -24.8335438 Eh     change       -0.6781333E-05 Eh
 * total energy  :   -24.8335540 Eh     change       -0.1013852E-04 Eh
 * total energy  :   -24.8335758 Eh     change       -0.2188601E-04 Eh
 * total energy  :   -24.8335826 Eh     change       -0.6733092E-05 Eh
 * total energy  :   -24.8335906 Eh     change       -0.8063286E-05 Eh
 * total energy  :   -24.8335895 Eh     change        0.1149050E-05 Eh
 * total energy  :   -24.8335967 Eh     change       -0.7186823E-05 Eh
 * total energy  :   -24.8336004 Eh     change       -0.3767242E-05 Eh
   *** GEOMETRY OPTIMIZATION CONVERGED AFTER 24 ITERATIONS ***

 final structure:
================
15
 xtb: 6.7.1 (edcfbbe)
C           -3.07954526478283        1.68080247367809       -0.03073319603655
C           -3.01041330272809        0.30663466004430       -0.05380261321279
H            0.22810072120497        2.37235119053208        0.08967285725412
O           -1.95412591263346        3.77527336286563        0.04868912527387
C           -1.78865471575623       -0.34868678269211       -0.02439488368286
H           -3.92830901221052       -0.26728070016804       -0.09465644490681
C           -0.62783933098672        0.40728911808006        0.02658259915390
H           -1.74260052251403       -1.42785661523702       -0.04162184540298
C           -0.68062513068686        1.78216958863445        0.05010477357809
H            0.33635662339741       -0.08594969465722        0.04975893952173
C           -1.91229803467034        2.47917080241811        0.02456179790336
H           -4.03686451593687        2.18759719461949       -0.05584380951491
O           -4.31452481743972        4.91582111700981        0.12572512135266
H           -3.42171134216445        4.46129705566918        0.05754326583169
H           -4.17474689180246        5.63083354820951        0.75514722737427

          :  Hamiltonian                  GFN2-xTB          :
         :: gradient norm              0.000832240100 Eh/a0 ::
         :: HOMO-LUMO gap              3.575902303593 eV    ::
         :: SCC energy               -25.167512427279 Eh    ::
         :: -> dispersion             -0.011254084014 Eh    ::
         :: -> Gsolv                  -0.101179647965 Eh    ::
         :: repulsion energy           0.333911988199 Eh    ::

    * Orbital Energies and Occupations

         #    Occupation            Energy/Eh            Energy/eV
      -------------------------------------------------------------
         1        2.0000           -0.6461513             -17.5827
       ...           ...                  ...                  ...
        10        2.0000           -0.4844037             -13.1813
        11        2.0000           -0.4748757             -12.9220
        12        2.0000           -0.4658886             -12.6775
        13        2.0000           -0.4584268             -12.4744
        14        2.0000           -0.4517339             -12.2923
        15        2.0000           -0.4483038             -12.1990
        16        2.0000           -0.4152120             -11.2985
        17        2.0000           -0.4109157             -11.1816
        18        2.0000           -0.4066763             -11.0662
        19        2.0000           -0.4051599             -11.0250
        20        2.0000           -0.3742510             -10.1839
        21        2.0000           -0.3376115              -9.1869
        22        2.0000           -0.3224679              -8.7748 (HOMO)
        23                         -0.1910560              -5.1989 (LUMO)
        24                         -0.1715780              -4.6689
        25                         -0.0540390              -1.4705
        26                          0.1203572               3.2751
        27                          0.1397489               3.8028
        28                          0.1580125               4.2997
        29                          0.1870493               5.0899
        30                          0.2130195               5.7966
        31                          0.2249378               6.1209
        32                          0.2495028               6.7893
        33                          0.2996924               8.1550
       ...                                ...                  ...
        39                          0.7055303              19.1985
      -------------------------------------------------------------
                  HL-Gap            0.1314119 Eh            3.5759 eV

     #   Z          covCN         q      C6AA      α(0)
     1   6 C        2.918    -0.095    30.379     9.038
     2   6 C        2.916    -0.047    29.167     8.856
     3   1 H        0.925    -0.017     3.375     2.873
     4   8 O        0.858    -0.716    29.160     7.240
     5   6 C        2.918    -0.074    29.856     8.960
     6   1 H        0.925     0.003     3.004     2.710
     7   6 C        2.916    -0.048    29.189     8.859
     8   1 H        0.926     0.007     2.947     2.685
     9   6 C        2.919    -0.092    30.309     9.028
    10   1 H        0.925     0.004     2.982     2.700
    11   6 C        2.835     0.161    24.512     8.113
    12   1 H        0.925    -0.006     3.172     2.785
    13   8 O        1.603    -0.717    28.178     7.164
    14   1 H        0.799     0.302     0.717     1.330
    15   1 H        0.805     0.336     0.622     1.238

Wiberg/Mayer (AO) data.
largest (>0.10) Wiberg bond orders for each atom

     #   Z sym  total        # sym  WBO       # sym  WBO       # sym  WBO
 ---------------------------------------------------------------------------
     1   6 C    3.982 --     2 C    1.489    11 C    1.272    12 H    0.970
     2   6 C    3.991 --     1 C    1.489     5 C    1.408     6 H    0.971
     3   1 H    1.000 --     9 C    0.972
     4   8 O    1.724 --    11 C    1.309
     5   6 C    3.982 --     7 C    1.410     2 C    1.408     8 H    0.973
     6   1 H    1.000 --     2 C    0.971
     7   6 C    3.990 --     9 C    1.487     5 C    1.410    10 H    0.971
     8   1 H    1.000 --     5 C    0.973
     9   6 C    3.981 --     7 C    1.487    11 C    1.272     3 H    0.972
    10   1 H    1.000 --     7 C    0.971
    11   6 C    3.963 --     4 O    1.309     9 C    1.272     1 C    1.272
    12   1 H    1.000 --     1 C    0.970
    13   8 O    1.742 --    15 H    0.886    14 H    0.804
    14   1 H    0.909 --    13 O    0.804
    15   1 H    0.887 --    13 O    0.886
 ---------------------------------------------------------------------------

molecular dipole:
                 x           y           z       tot (Debye)
 q only:        4.552      -5.647       0.283
   full:        4.727      -5.701       0.369      18.846

 projected vibrational frequencies (cm⁻¹)
eigval :       -0.00    -0.00    -0.00     0.00     0.00     0.00
eigval :      -59.26    40.00    73.93   203.79   229.42   376.37
eigval :      459.79   481.72   509.84   554.84   596.67   656.38
eigval :      750.70   831.85   842.37   853.58   868.85   907.68
eigval :      911.97   969.12  1078.78  1109.86  1174.99  1191.89
eigval :     1269.79  1322.97  1333.16  1448.76  1493.78  1541.04
eigval :     1549.13  1607.42  2697.41  3008.49  3016.85  3025.65
eigval :     3039.81  3063.48  3606.03

   temp. (K)  partition function   enthalpy   heat capacity  entropy
                                   cal/mol     cal/K/mol   cal/K/mol   J/K/mol
 298.15  VIB   102.                 3061.814     21.363     18.245
         ROT  0.385E+06              888.752      2.981     28.537
         INT  0.392E+08             3950.566     24.344     46.782
         TR   0.113E+28             1481.254      4.968     40.014
         TOT                        5431.8201    29.3124    86.7964   363.1559

       T/K    H(0)-H(T)+PV         H(T)/Eh          T*S/Eh         G(T)/Eh
   ------------------------------------------------------------------------
    298.15    0.865616E-02    0.119599E+00    0.412397E-01    0.783590E-01
   ------------------------------------------------------------------------

         :::::::::::::::::::::::::::::::::::::::::::::::::::::
         ::                  THERMODYNAMIC                  ::
         :::::::::::::::::::::::::::::::::::::::::::::::::::::
         :: total free energy         -24.755241485140 Eh   ::
         ::.................................................::
         :: total energy              -24.833600438678 Eh   ::
         :: zero point energy           0.110942544132 Eh   ::
         :: G(RRHO) w/o ZPVE           -0.032583590594 Eh   ::
         :: G(RRHO) contrib.            0.078358953538 Eh   ::
         :::::::::::::::::::::::::::::::::::::::::::::::::::::

           -------------------------------------------------
          | TOTAL ENERGY              -24.833600438678 Eh   |
          | TOTAL ENTHALPY            -24.714001738289 Eh   |
          | TOTAL FREE ENERGY         -24.755241485140 Eh   |
          | GRADIENT NORM               0.000832341551 Eh/α |
          | HOMO-LUMO GAP               3.575900020762 eV   |
           -------------------------------------------------

 * finished run on 2025/10/17 at 23:06:18.814
normal termination of xtb
