   * xtb version 6.7.1 (edcfbbe) compiled by 'albert@albert-system' on 2024-07-22

   ID    Z sym.   atoms
    1    6 C      1, 2, 5, 7, 9, 11
    2    1 H      3, 6, 8, 10, 12
    3    8 O      4

          program call               : xtb tb_lite_results_shiftn0p15_gp242_b0_rot180_solute.xyz --ohess --chrg -1
          :  Hamiltonian                  GFN2-xTB          :
 * total energy  :   -19.6431934 Eh     change       -0.3956657E-10 Eh
 * total energy  :   -19.6457120 Eh     change       -0.2518625E-02 Eh
 * total energy  :   -19.6457956 Eh     change       -0.8359750E-04 Eh
 * total energy  :   -19.6458007 Eh     change       -0.5140520E-05 Eh
 * total energy  :   -19.6458013 Eh     change       -0.5132819E-06 Eh
   *** GEOMETRY OPTIMIZATION CONVERGED AFTER 5 ITERATIONS ***

 final structure:
================
12
 xtb: 6.7.1 (edcfbbe)
C           -3.05728421912290        1.72913383224144       -0.00001080802185
C           -3.03135052154239        0.35702152345731        0.00000075056142
H            0.28594355514568        2.30343052084039       -0.00003670280922
O           -1.87875576373889        3.78283296127311       -0.00003539962514
C           -1.83055176229536       -0.34297744059896       -0.00000134463769
H           -3.96898400073825       -0.19832880033151        0.00001148902520
C           -0.64643642503431        0.38488594583286       -0.00001509179147
H           -1.81787113114208       -1.42827000026607        0.00000768953370
C           -0.65256924445508        1.75723085670673       -0.00002677242042
H            0.30391760795820       -0.14840440951761       -0.00001712306241
C           -1.86402353019853        2.52177654836828       -0.00002664884584
H           -4.00830167438401        2.25325852700512       -0.00000803752122

          :  Hamiltonian                  GFN2-xTB          :
         :: gradient norm              0.000420145905 Eh/a0 ::
         :: HOMO-LUMO gap              3.256445690980 eV    ::
         :: SCC energy               -19.949127233017 Eh    ::
         :: -> dispersion             -0.009855818038 Eh    ::
         :: repulsion energy           0.303325971388 Eh    ::

    * Orbital Energies and Occupations

         #    Occupation            Energy/Eh            Energy/eV
      -------------------------------------------------------------
         1        2.0000           -0.4500298             -12.2459
       ...           ...                  ...                  ...
         6        2.0000           -0.3730771             -10.1519
         7        2.0000           -0.3426812              -9.3248
         8        2.0000           -0.3154677              -8.5843
         9        2.0000           -0.3047385              -8.2924
        10        2.0000           -0.2931518              -7.9771
        11        2.0000           -0.2895514              -7.8791
        12        2.0000           -0.2800005              -7.6192
        13        2.0000           -0.2480435              -6.7496
        14        2.0000           -0.2448231              -6.6620
        15        2.0000           -0.2426421              -6.6026
        16        2.0000           -0.2117556              -5.7622
        17        2.0000           -0.1523084              -4.1445
        18        2.0000           -0.1464498              -3.9851 (HOMO)
        19                         -0.0267777              -0.7287 (LUMO)
        20                         -0.0021192              -0.0577
        21                          0.1119580               3.0465
        22                          0.2849362               7.7535
        23                          0.3036869               8.2637
        24                          0.3288118               8.9474
        25                          0.3625875               9.8665
        26                          0.3801469              10.3443
        27                          0.4396440              11.9633
        28                          0.5692322              15.4896
        29                          0.6055875              16.4789
       ...                                ...                  ...
        33                          0.8803786              23.9563
      -------------------------------------------------------------
                  HL-Gap            0.1196721 Eh            3.2564 eV

     #   Z          covCN         q      C6AA      α(0)
     1   6 C        2.917    -0.100    30.511     9.058
     2   6 C        2.913    -0.049    29.221     8.864
     3   1 H        0.925    -0.025     3.532     2.939
     4   8 O        0.857    -0.616    26.512     6.903
     5   6 C        2.915    -0.088    30.205     9.012
     6   1 H        0.925    -0.042     3.898     3.087
     7   6 C        2.913    -0.049    29.221     8.864
     8   1 H        0.925    -0.046     3.998     3.127
     9   6 C        2.917    -0.100    30.511     9.058
    10   1 H        0.925    -0.042     3.898     3.087
    11   6 C        2.829     0.181    24.109     8.046
    12   1 H        0.925    -0.025     3.532     2.939

Wiberg/Mayer (AO) data.
largest (>0.10) Wiberg bond orders for each atom

     #   Z sym  total        # sym  WBO       # sym  WBO       # sym  WBO
 ---------------------------------------------------------------------------
     1   6 C    3.976 --     2 C    1.517    11 C    1.205    12 H    0.972
                             4 O    0.105
     2   6 C    3.986 --     1 C    1.517     5 C    1.387     6 H    0.969
     3   1 H    0.999 --     9 C    0.972
     4   8 O    1.787 --    11 C    1.467     9 C    0.105     1 C    0.105
     5   6 C    3.966 --     7 C    1.387     2 C    1.387     8 H    0.971
     6   1 H    0.998 --     2 C    0.969
     7   6 C    3.986 --     9 C    1.517     5 C    1.387    10 H    0.969
     8   1 H    0.998 --     5 C    0.971
     9   6 C    3.976 --     7 C    1.517    11 C    1.205     3 H    0.972
                             4 O    0.105
    10   1 H    0.998 --     7 C    0.969
    11   6 C    3.971 --     4 O    1.467     9 C    1.205     1 C    1.205
    12   1 H    0.999 --     1 C    0.972
 ---------------------------------------------------------------------------

molecular dipole:
                 x           y           z       tot (Debye)
 q only:        3.517      -4.270       0.000
   full:        3.521      -4.614       0.000      14.752

 projected vibrational frequencies (cm⁻¹)
eigval :       -0.00    -0.00    -0.00    -0.00     0.00     0.00
eigval :      191.96   374.32   436.14   467.57   499.56   587.80
eigval :      652.45   739.07   797.55   837.10   840.87   905.53
eigval :      906.59   953.92  1072.63  1100.88  1177.41  1196.07
eigval :     1241.43  1327.39  1394.67  1471.81  1527.57  1559.27
eigval :     1628.60  2939.06  2943.84  2994.86  3002.63  3014.55

   temp. (K)  partition function   enthalpy   heat capacity  entropy
                                   cal/mol     cal/K/mol   cal/K/mol   J/K/mol
 298.15  VIB   3.55                 1604.539     15.013      7.903
         ROT  0.799E+05              888.752      2.981     25.414
         INT  0.284E+06             2493.292     17.994     33.317
         TR   0.869E+27             1481.254      4.968     39.487
         TOT                        3974.5456    22.9619    72.8036   304.6102

       T/K    H(0)-H(T)+PV         H(T)/Eh          T*S/Eh         G(T)/Eh
   ------------------------------------------------------------------------
    298.15    0.633384E-02    0.946883E-01    0.345913E-01    0.600969E-01
   ------------------------------------------------------------------------

         :::::::::::::::::::::::::::::::::::::::::::::::::::::
         ::                  THERMODYNAMIC                  ::
         :::::::::::::::::::::::::::::::::::::::::::::::::::::
         :: total free energy         -19.585704313394 Eh   ::
         ::.................................................::
         :: total energy              -19.645801261631 Eh   ::
         :: zero point energy           0.088354440900 Eh   ::
         :: G(RRHO) w/o ZPVE           -0.028257492662 Eh   ::
         :: G(RRHO) contrib.            0.060096948237 Eh   ::
         :::::::::::::::::::::::::::::::::::::::::::::::::::::

           -------------------------------------------------
          | TOTAL ENERGY              -19.645801261631 Eh   |
          | TOTAL ENTHALPY            -19.551112979113 Eh   |
          | TOTAL FREE ENERGY         -19.585704313394 Eh   |
          | GRADIENT NORM               0.000420118394 Eh/α |
          | HOMO-LUMO GAP               3.256443278259 eV   |
           -------------------------------------------------

 * finished run on 2025/10/17 at 23:06:15.531
normal termination of xtb
