   * xtb version 6.7.1 (edcfbbe) compiled by 'albert@albert-system' on 2024-07-22

   ID    Z sym.   atoms
    1    6 C      1, 2, 5, 7, 9, 11
    2    1 H      3, 6, 8, 10, 12, 14, 15
    3    8 O      4, 13

          program call               : xtb tb_lite_results_shiftn0p15_gp241_b0_rot90_complex.xyz --ohess --chrg -1 --alpb water
      * Solvation model:               ALPB
        Solvent                        water
        Solvent mass                       1.8000E+01 g/mol
          :  Hamiltonian                  GFN2-xTB          :
 * total energy  :   -24.8289670 Eh     change       -0.1744809E-09 Eh
 * total energy  :   -24.8324770 Eh     change       -0.3509970E-02 Eh
 * total energy  :   -24.8328971 Eh     change       -0.4200671E-03 Eh
 * total energy  :   -24.8330791 Eh     change       -0.1819910E-03 Eh
 * total energy  :   -24.8331959 Eh     change       -0.1168361E-03 Eh
 * total energy  :   -24.8332427 Eh     change       -0.4680396E-04 Eh
 * total energy  :   -24.8332897 Eh     change       -0.4694643E-04 Eh
 * total energy  :   -24.8333074 Eh     change       -0.1771026E-04 Eh
 * total energy  :   -24.8333516 Eh     change       -0.4420569E-04 Eh
 * total energy  :   -24.8333890 Eh     change       -0.3738788E-04 Eh
 * total energy  :   -24.8335130 Eh     change       -0.2234473E-04 Eh
 * total energy  :   -24.8335209 Eh     change       -0.7864955E-05 Eh
 * total energy  :   -24.8335330 Eh     change       -0.1209441E-04 Eh
 * total energy  :   -24.8335413 Eh     change       -0.8287722E-05 Eh
 * total energy  :   -24.8335119 Eh     change        0.2942009E-04 Eh
 * total energy  :   -24.8335671 Eh     change       -0.5526987E-04 Eh
 * total energy  :   -24.8335741 Eh     change       -0.7012442E-05 Eh
 * total energy  :   -24.8335826 Eh     change       -0.8491808E-05 Eh
 * total energy  :   -24.8335870 Eh     change       -0.4358482E-05 Eh
   *** GEOMETRY OPTIMIZATION CONVERGED AFTER 22 ITERATIONS ***

 final structure:
================
15
 xtb: 6.7.1 (edcfbbe)
C           -3.02843893644657        1.75662551613211        0.04771538506810
C           -3.05581372420458        0.38109974279659        0.01337188365135
H            0.32068985464604        2.22318914134816       -0.02399209899656
O           -1.79110680320521        3.77255755369842        0.06987943940180
C           -1.88111327233294       -0.35328549342099       -0.03326300790822
H           -4.01119661741828       -0.12940706085111        0.02302431374831
C           -0.67127696092539        0.32426375066033       -0.04540904917050
H           -1.90744970760397       -1.43293940025781       -0.06088753832997
C           -0.62755879962272        1.69928672523731       -0.01175214330792
H            0.25753412680372       -0.23207763512822       -0.08233108265160
C           -1.80965175666457        2.47598027438441        0.03555382826591
H           -3.94836903095254        2.32940148014053        0.08415151674813
O            0.55562160994043        4.94215268546307        0.10100054461058
H           -0.33603925986226        4.48295144387462        0.04594044990523
H            0.43285611715436        5.62966759513673        0.76373047345209

          :  Hamiltonian                  GFN2-xTB          :
         :: gradient norm              0.000741265217 Eh/a0 ::
         :: HOMO-LUMO gap              3.576037535751 eV    ::
         :: SCC energy               -25.167463398966 Eh    ::
         :: -> dispersion             -0.011259811988 Eh    ::
         :: -> Gsolv                  -0.101196980481 Eh    ::
         :: repulsion energy           0.333876402909 Eh    ::

    * Orbital Energies and Occupations

         #    Occupation            Energy/Eh            Energy/eV
      -------------------------------------------------------------
         1        2.0000           -0.6461153             -17.5817
       ...           ...                  ...                  ...
        10        2.0000           -0.4844003             -13.1812
        11        2.0000           -0.4748529             -12.9214
        12        2.0000           -0.4658239             -12.6757
        13        2.0000           -0.4584126             -12.4740
        14        2.0000           -0.4517098             -12.2916
        15        2.0000           -0.4483188             -12.1994
        16        2.0000           -0.4151860             -11.2978
        17        2.0000           -0.4109509             -11.1825
        18        2.0000           -0.4065999             -11.0641
        19        2.0000           -0.4050662             -11.0224
        20        2.0000           -0.3742200             -10.1830
        21        2.0000           -0.3375959              -9.1865
        22        2.0000           -0.3224723              -8.7749 (HOMO)
        23                         -0.1910553              -5.1989 (LUMO)
        24                         -0.1715611              -4.6684
        25                         -0.0540177              -1.4699
        26                          0.1204160               3.2767
        27                          0.1397530               3.8029
        28                          0.1580091               4.2996
        29                          0.1871842               5.0935
        30                          0.2129670               5.7951
        31                          0.2250608               6.1242
        32                          0.2493514               6.7852
        33                          0.2995514               8.1512
       ...                                ...                  ...
        39                          0.7054564              19.1964
      -------------------------------------------------------------
                  HL-Gap            0.1314170 Eh            3.5760 eV

     #   Z          covCN         q      C6AA      α(0)
     1   6 C        2.919    -0.092    30.309     9.028
     2   6 C        2.916    -0.048    29.189     8.859
     3   1 H        0.925    -0.006     3.164     2.782
     4   8 O        0.858    -0.717    29.164     7.240
     5   6 C        2.918    -0.074    29.854     8.960
     6   1 H        0.925     0.004     2.982     2.701
     7   6 C        2.916    -0.047    29.168     8.856
     8   1 H        0.926     0.006     2.948     2.685
     9   6 C        2.918    -0.095    30.380     9.038
    10   1 H        0.925     0.003     3.004     2.710
    11   6 C        2.835     0.161    24.512     8.113
    12   1 H        0.925    -0.017     3.376     2.873
    13   8 O        1.603    -0.717    28.183     7.165
    14   1 H        0.799     0.302     0.716     1.330
    15   1 H        0.805     0.336     0.622     1.239

Wiberg/Mayer (AO) data.
largest (>0.10) Wiberg bond orders for each atom

     #   Z sym  total        # sym  WBO       # sym  WBO       # sym  WBO
 ---------------------------------------------------------------------------
     1   6 C    3.981 --     2 C    1.487    11 C    1.273    12 H    0.972
     2   6 C    3.990 --     1 C    1.487     5 C    1.410     6 H    0.971
     3   1 H    1.000 --     9 C    0.970
     4   8 O    1.724 --    11 C    1.309    14 H    0.100
     5   6 C    3.982 --     2 C    1.410     7 C    1.408     8 H    0.973
     6   1 H    1.000 --     2 C    0.971
     7   6 C    3.991 --     9 C    1.489     5 C    1.408    10 H    0.971
     8   1 H    1.000 --     5 C    0.973
     9   6 C    3.982 --     7 C    1.489    11 C    1.272     3 H    0.970
    10   1 H    1.000 --     7 C    0.971
    11   6 C    3.963 --     4 O    1.309     1 C    1.273     9 C    1.272
    12   1 H    1.000 --     1 C    0.972
    13   8 O    1.742 --    15 H    0.886    14 H    0.803
    14   1 H    0.909 --    13 O    0.803     4 O    0.100
    15   1 H    0.887 --    13 O    0.886
 ---------------------------------------------------------------------------

molecular dipole:
                 x           y           z       tot (Debye)
 q only:        2.513      -5.667       0.288
   full:        2.342      -5.725       0.379      15.753

 projected vibrational frequencies (cm⁻¹)
eigval :       -0.00    -0.00    -0.00     0.00     0.00     0.00
eigval :       16.34    47.31    78.45   203.96   229.42   376.40
eigval :      460.10   482.05   509.74   547.93   596.26   656.46
eigval :      751.14   832.65   842.34   853.82   868.76   908.23
eigval :      912.59   969.18  1078.90  1110.13  1175.13  1192.11
eigval :     1270.01  1323.15  1332.88  1448.60  1493.73  1539.11
eigval :     1549.33  1607.27  2692.55  3008.57  3017.00  3025.87
eigval :     3040.51  3063.28  3606.22

   temp. (K)  partition function   enthalpy   heat capacity  entropy
                                   cal/mol     cal/K/mol   cal/K/mol   J/K/mol
 298.15  VIB  0.110E+04             3617.872     22.558     22.844
         ROT  0.384E+06              888.752      2.981     28.534
         INT  0.423E+09             4506.624     25.539     51.378
         TR   0.113E+28             1481.254      4.968     40.014
         TOT                        5987.8782    30.5071    91.3922   382.3851

       T/K    H(0)-H(T)+PV         H(T)/Eh          T*S/Eh         G(T)/Eh
   ------------------------------------------------------------------------
    298.15    0.954229E-02    0.120529E+00    0.434234E-01    0.771054E-01
   ------------------------------------------------------------------------

         :::::::::::::::::::::::::::::::::::::::::::::::::::::
         ::                  THERMODYNAMIC                  ::
         :::::::::::::::::::::::::::::::::::::::::::::::::::::
         :: total free energy         -24.756481568682 Eh   ::
         ::.................................................::
         :: total energy              -24.833586997353 Eh   ::
         :: zero point energy           0.110986538663 Eh   ::
         :: G(RRHO) w/o ZPVE           -0.033881109993 Eh   ::
         :: G(RRHO) contrib.            0.077105428671 Eh   ::
         :::::::::::::::::::::::::::::::::::::::::::::::::::::

           -------------------------------------------------
          | TOTAL ENERGY              -24.833586997353 Eh   |
          | TOTAL ENTHALPY            -24.713058167352 Eh   |
          | TOTAL FREE ENERGY         -24.756481568682 Eh   |
          | GRADIENT NORM               0.000741982186 Eh/α |
          | HOMO-LUMO GAP               3.576038449842 eV   |
           -------------------------------------------------

 * finished run on 2025/10/17 at 23:06:24.886
normal termination of xtb
