   * xtb version 6.7.1 (edcfbbe) compiled by 'albert@albert-system' on 2024-07-22

   ID    Z sym.   atoms
    1    6 C      1, 2, 5, 7, 9, 11
    2    1 H      3, 6, 8, 10, 12, 14, 15
    3    8 O      4, 13

          program call               : xtb tb_lite_results_shiftn0p15_gp242_b0_rot270_complex.xyz --ohess --chrg -1 --alpb water
      * Solvation model:               ALPB
        Solvent                        water
        Solvent mass                       1.8000E+01 g/mol
          :  Hamiltonian                  GFN2-xTB          :
 * total energy  :   -24.8289970 Eh     change       -0.1794653E-09 Eh
 * total energy  :   -24.8324718 Eh     change       -0.3474803E-02 Eh
 * total energy  :   -24.8328965 Eh     change       -0.4246621E-03 Eh
 * total energy  :   -24.8330828 Eh     change       -0.1863463E-03 Eh
 * total energy  :   -24.8331970 Eh     change       -0.1142008E-03 Eh
 * total energy  :   -24.8332497 Eh     change       -0.5265218E-04 Eh
 * total energy  :   -24.8332952 Eh     change       -0.4550454E-04 Eh
 * total energy  :   -24.8333144 Eh     change       -0.1918127E-04 Eh
 * total energy  :   -24.8333440 Eh     change       -0.2958056E-04 Eh
 * total energy  :   -24.8333764 Eh     change       -0.3246642E-04 Eh
 * total energy  :   -24.8335370 Eh     change       -0.1088278E-04 Eh
 * total energy  :   -24.8335438 Eh     change       -0.6786088E-05 Eh
 * total energy  :   -24.8335525 Eh     change       -0.8715971E-05 Eh
 * total energy  :   -24.8335759 Eh     change       -0.2331836E-04 Eh
 * total energy  :   -24.8335845 Eh     change       -0.8619847E-05 Eh
 * total energy  :   -24.8335915 Eh     change       -0.6994543E-05 Eh
 * total energy  :   -24.8335903 Eh     change        0.1156292E-05 Eh
 * total energy  :   -24.8335977 Eh     change       -0.7360924E-05 Eh
 * total energy  :   -24.8336019 Eh     change       -0.4171774E-05 Eh
   *** GEOMETRY OPTIMIZATION CONVERGED AFTER 24 ITERATIONS ***

 final structure:
================
15
 xtb: 6.7.1 (edcfbbe)
C           -3.07960149613702        1.68050333454589        0.03051709357285
C           -3.01025480972513        0.30636121360495        0.05423196544957
H            0.22792528244690        2.37251987071404       -0.09040587472475
O           -1.95451823153155        3.77510654450778       -0.05001283068130
C           -1.78839703671844       -0.34878222542735        0.02503282319988
H           -3.92804323995418       -0.26769624736654        0.09542683901364
C           -0.62770033705159        0.40735261917509       -0.02635567629169
H           -1.74218020974898       -1.42793239688038        0.04273360271309
C           -0.68070187013008        1.78220788765970       -0.05052308699051
H            0.33656486161048       -0.08576236795987       -0.04935115330594
C           -1.91248710450938        2.47902950004488       -0.02529106905178
H           -4.03698414936705        2.18718071672129        0.05546745156317
O           -4.31508783661489        4.91517234358326       -0.12719787718213
H           -3.42231255887546        4.46047284623309       -0.05939289779668
H           -4.17402271340403        5.63373267985112       -0.75214640402649

          :  Hamiltonian                  GFN2-xTB          :
         :: gradient norm              0.000779767232 Eh/a0 ::
         :: HOMO-LUMO gap              3.575988864263 eV    ::
         :: SCC energy               -25.167528576210 Eh    ::
         :: -> dispersion             -0.011254045217 Eh    ::
         :: -> Gsolv                  -0.101179952797 Eh    ::
         :: repulsion energy           0.333926722624 Eh    ::

    * Orbital Energies and Occupations

         #    Occupation            Energy/Eh            Energy/eV
      -------------------------------------------------------------
         1        2.0000           -0.6461510             -17.5827
       ...           ...                  ...                  ...
        10        2.0000           -0.4843958             -13.1811
        11        2.0000           -0.4748768             -12.9221
        12        2.0000           -0.4658859             -12.6774
        13        2.0000           -0.4584282             -12.4745
        14        2.0000           -0.4517316             -12.2922
        15        2.0000           -0.4483030             -12.1989
        16        2.0000           -0.4152144             -11.2986
        17        2.0000           -0.4109074             -11.1814
        18        2.0000           -0.4066784             -11.0663
        19        2.0000           -0.4051626             -11.0250
        20        2.0000           -0.3742503             -10.1839
        21        2.0000           -0.3376154              -9.1870
        22        2.0000           -0.3224685              -8.7748 (HOMO)
        23                         -0.1910534              -5.1988 (LUMO)
        24                         -0.1715776              -4.6689
        25                         -0.0540373              -1.4704
        26                          0.1203801               3.2757
        27                          0.1397572               3.8030
        28                          0.1580355               4.3004
        29                          0.1870744               5.0906
        30                          0.2130301               5.7968
        31                          0.2249466               6.1211
        32                          0.2495359               6.7902
        33                          0.2997437               8.1564
       ...                                ...                  ...
        39                          0.7055392              19.1987
      -------------------------------------------------------------
                  HL-Gap            0.1314151 Eh            3.5760 eV

     #   Z          covCN         q      C6AA      α(0)
     1   6 C        2.918    -0.095    30.379     9.038
     2   6 C        2.916    -0.047    29.167     8.856
     3   1 H        0.925    -0.017     3.375     2.873
     4   8 O        0.858    -0.716    29.160     7.240
     5   6 C        2.918    -0.074    29.856     8.960
     6   1 H        0.925     0.003     3.004     2.710
     7   6 C        2.916    -0.048    29.189     8.859
     8   1 H        0.926     0.007     2.947     2.685
     9   6 C        2.919    -0.092    30.309     9.028
    10   1 H        0.925     0.004     2.982     2.700
    11   6 C        2.835     0.161    24.512     8.113
    12   1 H        0.925    -0.006     3.172     2.785
    13   8 O        1.603    -0.717    28.179     7.164
    14   1 H        0.799     0.302     0.717     1.330
    15   1 H        0.805     0.336     0.622     1.238

Wiberg/Mayer (AO) data.
largest (>0.10) Wiberg bond orders for each atom

     #   Z sym  total        # sym  WBO       # sym  WBO       # sym  WBO
 ---------------------------------------------------------------------------
     1   6 C    3.982 --     2 C    1.489    11 C    1.272    12 H    0.970
     2   6 C    3.991 --     1 C    1.489     5 C    1.408     6 H    0.971
     3   1 H    1.000 --     9 C    0.972
     4   8 O    1.724 --    11 C    1.309
     5   6 C    3.982 --     7 C    1.410     2 C    1.408     8 H    0.973
     6   1 H    1.000 --     2 C    0.971
     7   6 C    3.990 --     9 C    1.487     5 C    1.410    10 H    0.971
     8   1 H    1.000 --     5 C    0.973
     9   6 C    3.981 --     7 C    1.487    11 C    1.272     3 H    0.972
    10   1 H    1.000 --     7 C    0.971
    11   6 C    3.963 --     4 O    1.309     9 C    1.272     1 C    1.272
    12   1 H    1.000 --     1 C    0.970
    13   8 O    1.742 --    15 H    0.886    14 H    0.804
    14   1 H    0.909 --    13 O    0.804
    15   1 H    0.887 --    13 O    0.886
 ---------------------------------------------------------------------------

molecular dipole:
                 x           y           z       tot (Debye)
 q only:        4.554      -5.645      -0.279
   full:        4.728      -5.698      -0.364      18.843

 projected vibrational frequencies (cm⁻¹)
eigval :       -0.00     0.00     0.00     0.00     0.00     0.00
eigval :      -68.25    40.16    74.47   203.78   229.49   376.36
eigval :      459.48   481.67   509.84   554.45   596.70   656.36
eigval :      750.67   831.77   842.32   853.48   868.25   907.67
eigval :      911.94   969.12  1078.79  1109.86  1174.97  1191.89
eigval :     1269.79  1322.97  1333.18  1448.77  1493.79  1540.93
eigval :     1549.12  1607.43  2697.09  3008.49  3016.88  3025.65
eigval :     3039.85  3063.53  3607.05

   temp. (K)  partition function   enthalpy   heat capacity  entropy
                                   cal/mol     cal/K/mol   cal/K/mol   J/K/mol
 298.15  VIB   101.                 3061.350     21.373     18.238
         ROT  0.385E+06              888.752      2.981     28.537
         INT  0.388E+08             3950.102     24.354     46.775
         TR   0.113E+28             1481.254      4.968     40.014
         TOT                        5431.3561    29.3221    86.7888   363.1242

       T/K    H(0)-H(T)+PV         H(T)/Eh          T*S/Eh         G(T)/Eh
   ------------------------------------------------------------------------
    298.15    0.865542E-02    0.119598E+00    0.412361E-01    0.783615E-01
   ------------------------------------------------------------------------

         :::::::::::::::::::::::::::::::::::::::::::::::::::::
         ::                  THERMODYNAMIC                  ::
         :::::::::::::::::::::::::::::::::::::::::::::::::::::
         :: total free energy         -24.755240361003 Eh   ::
         ::.................................................::
         :: total energy              -24.833601851894 Eh   ::
         :: zero point energy           0.110942217181 Eh   ::
         :: G(RRHO) w/o ZPVE           -0.032580726289 Eh   ::
         :: G(RRHO) contrib.            0.078361490891 Eh   ::
         :::::::::::::::::::::::::::::::::::::::::::::::::::::

           -------------------------------------------------
          | TOTAL ENERGY              -24.833601851894 Eh   |
          | TOTAL ENTHALPY            -24.714004217751 Eh   |
          | TOTAL FREE ENERGY         -24.755240361003 Eh   |
          | GRADIENT NORM               0.000779835462 Eh/α |
          | HOMO-LUMO GAP               3.575986564008 eV   |
           -------------------------------------------------

 * finished run on 2025/10/17 at 23:06:22.201
normal termination of xtb
