   * xtb version 6.7.1 (edcfbbe) compiled by 'albert@albert-system' on 2024-07-22

   ID    Z sym.   atoms
    1    6 C      1, 2, 5, 7, 9, 11
    2    1 H      3, 6, 8, 10, 12, 14, 15
    3    8 O      4, 13

          program call               : xtb tb_lite_results_shiftn0p15_gp241_b0_rot270_complex.xyz --ohess --chrg -1 --alpb water
      * Solvation model:               ALPB
        Solvent                        water
        Solvent mass                       1.8000E+01 g/mol
          :  Hamiltonian                  GFN2-xTB          :
 * total energy  :   -24.8289670 Eh     change       -0.1765805E-09 Eh
 * total energy  :   -24.8324641 Eh     change       -0.3497033E-02 Eh
 * total energy  :   -24.8328864 Eh     change       -0.4222792E-03 Eh
 * total energy  :   -24.8330747 Eh     change       -0.1883444E-03 Eh
 * total energy  :   -24.8331911 Eh     change       -0.1163899E-03 Eh
 * total energy  :   -24.8332396 Eh     change       -0.4853648E-04 Eh
 * total energy  :   -24.8332861 Eh     change       -0.4651132E-04 Eh
 * total energy  :   -24.8333062 Eh     change       -0.2008351E-04 Eh
 * total energy  :   -24.8333428 Eh     change       -0.3654773E-04 Eh
 * total energy  :   -24.8333807 Eh     change       -0.3798501E-04 Eh
 * total energy  :   -24.8335029 Eh     change       -0.5500230E-04 Eh
 * total energy  :   -24.8335119 Eh     change       -0.9052861E-05 Eh
 * total energy  :   -24.8335207 Eh     change       -0.8782798E-05 Eh
 * total energy  :   -24.8335264 Eh     change       -0.5698663E-05 Eh
 * total energy  :   -24.8335430 Eh     change       -0.1659337E-04 Eh
 * total energy  :   -24.8335528 Eh     change       -0.9798025E-05 Eh
 * total energy  :   -24.8335604 Eh     change       -0.7611021E-05 Eh
 * total energy  :   -24.8335726 Eh     change       -0.1217783E-04 Eh
 * total energy  :   -24.8335759 Eh     change       -0.3320280E-05 Eh
   *** GEOMETRY OPTIMIZATION CONVERGED AFTER 22 ITERATIONS ***

 final structure:
================
15
 xtb: 6.7.1 (edcfbbe)
C           -3.02807697444537        1.75270690515622       -0.04189867754490
C           -3.05043020957883        0.37690067716977       -0.02332891788146
H            0.31897669320755        2.23080711863014        0.04925701783564
O           -1.79840888375910        3.77339016265201       -0.04039281211604
C           -1.87317373310031       -0.35368996501673        0.01917391286257
H           -4.00385453430057       -0.13701509390688       -0.04274460839568
C           -0.66604552135122        0.32826379379102        0.04460254970496
H           -1.89558666148059       -1.43365610692261        0.03324897923375
C           -0.62735729325634        1.70370049913672        0.02665661557953
H            0.26463466349802       -0.22508718377466        0.07955591901286
C           -1.81204261221413        2.47672060583062       -0.01828141702477
H           -3.95010337254739        2.32237706682948       -0.07510668621805
O            0.54355996738273        4.95376641993974       -0.10407490821638
H           -0.34613532090361        4.49379537908586       -0.03303741067156
H            0.42273063215458        5.60648604061329       -0.80089665069931

          :  Hamiltonian                  GFN2-xTB          :
         :: gradient norm              0.000404339708 Eh/a0 ::
         :: HOMO-LUMO gap              3.575800836077 eV    ::
         :: SCC energy               -25.167569020605 Eh    ::
         :: -> dispersion             -0.011259708972 Eh    ::
         :: -> Gsolv                  -0.101153908330 Eh    ::
         :: repulsion energy           0.333993109081 Eh    ::

    * Orbital Energies and Occupations

         #    Occupation            Energy/Eh            Energy/eV
      -------------------------------------------------------------
         1        2.0000           -0.6462355             -17.5850
       ...           ...                  ...                  ...
        10        2.0000           -0.4844931             -13.1837
        11        2.0000           -0.4748488             -12.9213
        12        2.0000           -0.4658760             -12.6771
        13        2.0000           -0.4584059             -12.4739
        14        2.0000           -0.4517122             -12.2917
        15        2.0000           -0.4483175             -12.1993
        16        2.0000           -0.4151828             -11.2977
        17        2.0000           -0.4110706             -11.1858
        18        2.0000           -0.4065906             -11.0639
        19        2.0000           -0.4050670             -11.0224
        20        2.0000           -0.3742181             -10.1830
        21        2.0000           -0.3375503              -9.1852
        22        2.0000           -0.3224346              -8.7739 (HOMO)
        23                         -0.1910262              -5.1981 (LUMO)
        24                         -0.1715391              -4.6678
        25                         -0.0540045              -1.4695
        26                          0.1208349               3.2881
        27                          0.1397235               3.8021
        28                          0.1580230               4.3000
        29                          0.1870618               5.0902
        30                          0.2129516               5.7947
        31                          0.2250083               6.1228
        32                          0.2495239               6.7899
        33                          0.2998828               8.1602
       ...                                ...                  ...
        39                          0.7055591              19.1992
      -------------------------------------------------------------
                  HL-Gap            0.1314083 Eh            3.5758 eV

     #   Z          covCN         q      C6AA      α(0)
     1   6 C        2.919    -0.092    30.310     9.028
     2   6 C        2.916    -0.048    29.189     8.859
     3   1 H        0.925    -0.006     3.166     2.783
     4   8 O        0.858    -0.717    29.165     7.241
     5   6 C        2.918    -0.074    29.856     8.960
     6   1 H        0.925     0.004     2.984     2.701
     7   6 C        2.916    -0.047    29.168     8.856
     8   1 H        0.926     0.006     2.949     2.685
     9   6 C        2.918    -0.095    30.382     9.039
    10   1 H        0.925     0.003     3.005     2.711
    11   6 C        2.835     0.161    24.510     8.113
    12   1 H        0.925    -0.017     3.378     2.874
    13   8 O        1.603    -0.717    28.172     7.163
    14   1 H        0.799     0.302     0.716     1.329
    15   1 H        0.805     0.336     0.622     1.239

Wiberg/Mayer (AO) data.
largest (>0.10) Wiberg bond orders for each atom

     #   Z sym  total        # sym  WBO       # sym  WBO       # sym  WBO
 ---------------------------------------------------------------------------
     1   6 C    3.981 --     2 C    1.487    11 C    1.272    12 H    0.972
     2   6 C    3.990 --     1 C    1.487     5 C    1.410     6 H    0.971
     3   1 H    1.000 --     9 C    0.970
     4   8 O    1.724 --    11 C    1.309
     5   6 C    3.982 --     2 C    1.410     7 C    1.408     8 H    0.973
     6   1 H    1.000 --     2 C    0.971
     7   6 C    3.991 --     9 C    1.489     5 C    1.408    10 H    0.971
     8   1 H    1.000 --     5 C    0.973
     9   6 C    3.982 --     7 C    1.489    11 C    1.272     3 H    0.970
    10   1 H    1.000 --     7 C    0.971
    11   6 C    3.963 --     4 O    1.309     1 C    1.272     9 C    1.272
    12   1 H    1.000 --     1 C    0.972
    13   8 O    1.742 --    15 H    0.886    14 H    0.804
    14   1 H    0.909 --    13 O    0.804
    15   1 H    0.887 --    13 O    0.886
 ---------------------------------------------------------------------------

molecular dipole:
                 x           y           z       tot (Debye)
 q only:        2.527      -5.687      -0.337
   full:        2.357      -5.752      -0.432      15.838

 projected vibrational frequencies (cm⁻¹)
eigval :       -0.00    -0.00     0.00     0.00     0.00     0.00
eigval :       39.84    63.06    79.55   203.59   228.90   376.40
eigval :      460.20   481.74   509.67   547.61   596.14   656.30
eigval :      750.94   832.40   842.28   853.57   870.45   908.16
eigval :      912.52   969.10  1078.96  1110.11  1175.07  1192.20
eigval :     1269.86  1323.06  1333.35  1448.80  1493.95  1539.47
eigval :     1549.13  1607.52  2700.15  3008.20  3016.83  3025.62
eigval :     3040.07  3063.45  3612.59

   temp. (K)  partition function   enthalpy   heat capacity  entropy
                                   cal/mol     cal/K/mol   cal/K/mol   J/K/mol
 298.15  VIB   369.                 3564.975     23.101     22.226
         ROT  0.384E+06              888.752      2.981     28.535
         INT  0.142E+09             4453.727     26.082     50.761
         TR   0.113E+28             1481.254      4.968     40.014
         TOT                        5934.9809    31.0503    90.7754   379.8044

       T/K    H(0)-H(T)+PV         H(T)/Eh          T*S/Eh         G(T)/Eh
   ------------------------------------------------------------------------
    298.15    0.945799E-02    0.120566E+00    0.431303E-01    0.774357E-01
   ------------------------------------------------------------------------

         :::::::::::::::::::::::::::::::::::::::::::::::::::::
         ::                  THERMODYNAMIC                  ::
         :::::::::::::::::::::::::::::::::::::::::::::::::::::
         :: total free energy         -24.756140166410 Eh   ::
         ::.................................................::
         :: total energy              -24.833575913337 Eh   ::
         :: zero point energy           0.111108091804 Eh   ::
         :: G(RRHO) w/o ZPVE           -0.033672344877 Eh   ::
         :: G(RRHO) contrib.            0.077435746927 Eh   ::
         :::::::::::::::::::::::::::::::::::::::::::::::::::::

           -------------------------------------------------
          | TOTAL ENERGY              -24.833575913337 Eh   |
          | TOTAL ENTHALPY            -24.713009827393 Eh   |
          | TOTAL FREE ENERGY         -24.756140166410 Eh   |
          | GRADIENT NORM               0.000404529353 Eh/α |
          | HOMO-LUMO GAP               3.575802400466 eV   |
           -------------------------------------------------

 * finished run on 2025/10/17 at 23:06:27.039
normal termination of xtb
