   * xtb version 6.7.1 (edcfbbe) compiled by 'albert@albert-system' on 2024-07-22

   ID    Z sym.   atoms
    1    6 C      1, 2, 5, 7, 9, 11
    2    1 H      3, 6, 8, 10, 12, 14, 15
    3    8 O      4, 13

          program call               : xtb tb_lite_results_shiftn0p15_gp242_b0_rot180_complex.xyz --ohess --chrg -1 --alpb water
      * Solvation model:               ALPB
        Solvent                        water
        Solvent mass                       1.8000E+01 g/mol
          :  Hamiltonian                  GFN2-xTB          :
 * total energy  :   -24.8268617 Eh     change       -0.3947562E-09 Eh
 * total energy  :   -24.8305353 Eh     change       -0.3673614E-02 Eh
 * total energy  :   -24.8308223 Eh     change       -0.2870359E-03 Eh
 * total energy  :   -24.8309100 Eh     change       -0.8767109E-04 Eh
 * total energy  :   -24.8309799 Eh     change       -0.6985521E-04 Eh
 * total energy  :   -24.8309973 Eh     change       -0.1743125E-04 Eh
 * total energy  :   -24.8310082 Eh     change       -0.1095783E-04 Eh
 * total energy  :   -24.8310153 Eh     change       -0.7032710E-05 Eh
 * total energy  :   -24.8310212 Eh     change       -0.5964326E-05 Eh
 * total energy  :   -24.8310250 Eh     change       -0.3794822E-05 Eh
   *** GEOMETRY OPTIMIZATION CONVERGED AFTER 10 ITERATIONS ***

 final structure:
================
15
 xtb: 6.7.1 (edcfbbe)
C           -3.07535544626290        1.67628205524142       -0.00000746135749
C           -3.01859124239926        0.30114696725286       -0.00000047978067
H            0.23687341962776        2.34266015316468       -0.00004396358342
O           -1.93017227350951        3.76458163389982       -0.00003440795361
C           -1.80284253800679       -0.36402900351792       -0.00000790250331
H           -3.94234191887054       -0.26477490827586        0.00001340620098
C           -0.63548002618061        0.38475239032464       -0.00002364468258
H           -1.76525818296762       -1.44350680226071       -0.00000087570568
C           -0.67716028754887        1.75936982141999       -0.00003113833858
H            0.32553254821975       -0.11519311095423       -0.00002686449621
C           -1.90318073300953        2.47034555261626       -0.00001985015129
H           -4.03358117554674        2.18132678923565       -0.00000025747694
O           -4.16487347541311        5.18031660223306        0.00001897416770
H           -3.30595143884017        4.66850171851615        0.00000160123419
H           -4.85886677071272        4.51363314593192       -0.00010422559918

          :  Hamiltonian                  GFN2-xTB          :
         :: gradient norm              0.000357479105 Eh/a0 ::
         :: HOMO-LUMO gap              3.547684142039 eV    ::
         :: SCC energy               -25.165647816341 Eh    ::
         :: -> dispersion             -0.011218972939 Eh    ::
         :: -> Gsolv                  -0.097716053742 Eh    ::
         :: repulsion energy           0.334622778550 Eh    ::

    * Orbital Energies and Occupations

         #    Occupation            Energy/Eh            Energy/eV
      -------------------------------------------------------------
         1        2.0000           -0.6501633             -17.6918
       ...           ...                  ...                  ...
        10        2.0000           -0.4886376             -13.2965
        11        2.0000           -0.4757731             -12.9464
        12        2.0000           -0.4679255             -12.7329
        13        2.0000           -0.4596467             -12.5076
        14        2.0000           -0.4537200             -12.3464
        15        2.0000           -0.4490121             -12.2182
        16        2.0000           -0.4164945             -11.3334
        17        2.0000           -0.4144500             -11.2778
        18        2.0000           -0.4093409             -11.1387
        19        2.0000           -0.4065359             -11.0624
        20        2.0000           -0.3758283             -10.2268
        21        2.0000           -0.3380374              -9.1985
        22        2.0000           -0.3229241              -8.7872 (HOMO)
        23                         -0.1925491              -5.2395 (LUMO)
        24                         -0.1723746              -4.6906
        25                         -0.0553996              -1.5075
        26                          0.1057374               2.8773
        27                          0.1383092               3.7636
        28                          0.1585831               4.3153
        29                          0.1896070               5.1595
        30                          0.2104424               5.7264
        31                          0.2207027               6.0056
        32                          0.2419881               6.5848
        33                          0.3090381               8.4094
       ...                                ...                  ...
        39                          0.7053918              19.1947
      -------------------------------------------------------------
                  HL-Gap            0.1303750 Eh            3.5477 eV

     #   Z          covCN         q      C6AA      α(0)
     1   6 C        2.919    -0.097    30.428     9.046
     2   6 C        2.916    -0.048    29.182     8.858
     3   1 H        0.925    -0.019     3.400     2.884
     4   8 O        0.857    -0.718    29.194     7.244
     5   6 C        2.918    -0.075    29.871     8.962
     6   1 H        0.925     0.004     2.985     2.702
     7   6 C        2.916    -0.047    29.173     8.857
     8   1 H        0.926     0.006     2.956     2.688
     9   6 C        2.919    -0.092    30.301     9.027
    10   1 H        0.925     0.004     2.997     2.707
    11   6 C        2.834     0.163    24.477     8.108
    12   1 H        0.925    -0.013     3.294     2.838
    13   8 O        1.604    -0.700    27.713     7.105
    14   1 H        0.800     0.313     0.685     1.301
    15   1 H        0.805     0.318     0.670     1.285

Wiberg/Mayer (AO) data.
largest (>0.10) Wiberg bond orders for each atom

     #   Z sym  total        # sym  WBO       # sym  WBO       # sym  WBO
 ---------------------------------------------------------------------------
     1   6 C    3.980 --     2 C    1.487    11 C    1.269    12 H    0.969
     2   6 C    3.991 --     1 C    1.487     5 C    1.411     6 H    0.971
     3   1 H    1.000 --     9 C    0.972
     4   8 O    1.719 --    11 C    1.318
     5   6 C    3.981 --     2 C    1.411     7 C    1.405     8 H    0.973
     6   1 H    1.000 --     2 C    0.971
     7   6 C    3.990 --     9 C    1.493     5 C    1.405    10 H    0.971
     8   1 H    1.000 --     5 C    0.973
     9   6 C    3.981 --     7 C    1.493    11 C    1.265     3 H    0.972
    10   1 H    1.000 --     7 C    0.971
    11   6 C    3.963 --     4 O    1.318     1 C    1.269     9 C    1.265
    12   1 H    1.000 --     1 C    0.969
    13   8 O    1.753 --    15 H    0.896    14 H    0.810
    14   1 H    0.902 --    13 O    0.810
    15   1 H    0.899 --    13 O    0.896
 ---------------------------------------------------------------------------

molecular dipole:
                 x           y           z       tot (Debye)
 q only:        3.973      -6.504      -0.000
   full:        4.018      -6.807      -0.000      20.090

 projected vibrational frequencies (cm⁻¹)
eigval :       -0.00    -0.00    -0.00     0.00     0.00     0.00
eigval :     -142.60    26.36    65.47   202.50   212.71   377.89
eigval :      454.88   479.52   508.01   537.56   594.88   656.12
eigval :      747.16   819.82   830.71   844.74   848.17   906.04
eigval :      910.27   966.97  1077.63  1107.55  1174.68  1189.48
eigval :     1263.40  1322.18  1336.77  1448.82  1493.19  1532.20
eigval :     1547.52  1609.01  2792.32  3008.65  3015.24  3024.48
eigval :     3034.20  3064.74  3610.16

   temp. (K)  partition function   enthalpy   heat capacity  entropy
                                   cal/mol     cal/K/mol   cal/K/mol   J/K/mol
 298.15  VIB   177.                 3129.431     21.261     18.751
         ROT  0.393E+06              888.752      2.981     28.579
         INT  0.693E+08             4018.183     24.242     47.330
         TR   0.113E+28             1481.254      4.968     40.014
         TOT                        5499.4368    29.2098    87.3437   365.4462

       T/K    H(0)-H(T)+PV         H(T)/Eh          T*S/Eh         G(T)/Eh
   ------------------------------------------------------------------------
    298.15    0.876391E-02    0.119578E+00    0.414998E-01    0.780786E-01
   ------------------------------------------------------------------------

         :::::::::::::::::::::::::::::::::::::::::::::::::::::
         ::                  THERMODYNAMIC                  ::
         :::::::::::::::::::::::::::::::::::::::::::::::::::::
         :: total free energy         -24.752946389242 Eh   ::
         ::.................................................::
         :: total energy              -24.831025038390 Eh   ::
         :: zero point energy           0.110814571355 Eh   ::
         :: G(RRHO) w/o ZPVE           -0.032735922207 Eh   ::
         :: G(RRHO) contrib.            0.078078649148 Eh   ::
         :::::::::::::::::::::::::::::::::::::::::::::::::::::

           -------------------------------------------------
          | TOTAL ENERGY              -24.831025038390 Eh   |
          | TOTAL ENTHALPY            -24.711446556605 Eh   |
          | TOTAL FREE ENERGY         -24.752946389242 Eh   |
          | GRADIENT NORM               0.000357257718 Eh/α |
          | HOMO-LUMO GAP               3.547683514982 eV   |
           -------------------------------------------------

 * finished run on 2025/10/17 at 23:06:14.883
normal termination of xtb
