   * xtb version 6.7.1 (edcfbbe) compiled by 'albert@albert-system' on 2024-07-22

   ID    Z sym.   atoms
    1    6 C      1, 2, 6, 9, 11
    2    1 H      3-5, 7, 8, 10, 13-15
    3    8 O      12

          program call               : xtb xyz.xyz --alpb water --charge -1 --ohess
      * Solvation model:               ALPB
        Solvent                        water
        Solvent mass                       1.8000E+01 g/mol
          :  Hamiltonian                  GFN2-xTB          :
 * total energy  :   -19.6067976 Eh     change       -0.2383871E-10 Eh
 * total energy  :   -19.6169339 Eh     change       -0.1013628E-01 Eh
 * total energy  :   -19.6186216 Eh     change       -0.1687683E-02 Eh
 * total energy  :   -19.6188567 Eh     change       -0.2351042E-03 Eh
 * total energy  :   -19.6190654 Eh     change       -0.2087815E-03 Eh
 * total energy  :   -19.6192387 Eh     change       -0.1732165E-03 Eh
 * total energy  :   -19.6194250 Eh     change       -0.1863012E-03 Eh
 * total energy  :   -19.6196442 Eh     change       -0.2192315E-03 Eh
 * total energy  :   -19.6199338 Eh     change       -0.2896105E-03 Eh
 * total energy  :   -19.6201868 Eh     change       -0.2530420E-03 Eh
 * total energy  :   -19.6206334 Eh     change       -0.1660884E-03 Eh
 * total energy  :   -19.6207729 Eh     change       -0.1394288E-03 Eh
 * total energy  :   -19.6208444 Eh     change       -0.7157202E-04 Eh
 * total energy  :   -19.6208975 Eh     change       -0.5304801E-04 Eh
 * total energy  :   -19.6209162 Eh     change       -0.1868101E-04 Eh
 * total energy  :   -19.6209251 Eh     change       -0.8941602E-05 Eh
 * total energy  :   -19.6209265 Eh     change       -0.1395887E-05 Eh
 * total energy  :   -19.6209282 Eh     change       -0.1711162E-05 Eh
 * total energy  :   -19.6209295 Eh     change       -0.1248947E-05 Eh
   *** GEOMETRY OPTIMIZATION CONVERGED AFTER 20 ITERATIONS ***

 final structure:
================
15
 xtb: 6.7.1 (edcfbbe)
C           -4.88118617122289       -2.73816563340442        2.25468257578652
C           -6.04744023703749       -3.20622318727854        3.07137599141309
H           -4.75674216140121       -1.65112826124220        2.30347559214974
H           -3.94183095959685       -3.19690504037842        2.58035958970831
H           -5.06524367307018       -3.01882722174756        1.21829937628831
C           -7.12505054647525       -3.83210528720285        2.54119721257885
H           -6.00734815745231       -3.01973396737034        4.13907856364781
H           -8.20921038515408       -3.64921569757901        4.40871068388785
C           -8.23245345187348       -4.27565192453903        3.51373161481698
H           -9.19597016920522       -4.13891014702405        3.01334031451710
C           -8.06074279016843       -5.74305987134014        3.89417439407872
O           -7.30129609300687       -4.11176353982623        1.28849092786124
H           -7.11317747821907       -5.88076021105662        4.41110634675098
H           -8.87305057843905       -6.07965595436025        4.53639472326922
H           -8.04722914767756       -6.34736105565035        2.98890509324530

          :  Hamiltonian                  GFN2-xTB          :
         :: gradient norm              0.000497059318 Eh/a0 ::
         :: HOMO-LUMO gap              4.589400864869 eV    ::
         :: SCC energy               -19.875685158241 Eh    ::
         :: -> dispersion             -0.009352041415 Eh    ::
         :: -> Gsolv                  -0.104268968977 Eh    ::
         :: repulsion energy           0.254755707570 Eh    ::

    * Orbital Energies and Occupations

         #    Occupation            Energy/Eh            Energy/eV
      -------------------------------------------------------------
         1        2.0000           -0.6037592             -16.4291
       ...           ...                  ...                  ...
         6        2.0000           -0.4994877             -13.5918
         7        2.0000           -0.4856432             -13.2150
         8        2.0000           -0.4790648             -13.0360
         9        2.0000           -0.4634040             -12.6099
        10        2.0000           -0.4575935             -12.4518
        11        2.0000           -0.4478003             -12.1853
        12        2.0000           -0.4396660             -11.9639
        13        2.0000           -0.4238717             -11.5341
        14        2.0000           -0.4082111             -11.1080
        15        2.0000           -0.3987863             -10.8515
        16        2.0000           -0.3971011             -10.8057
        17        2.0000           -0.3114796              -8.4758
        18        2.0000           -0.2849081              -7.7527 (HOMO)
        19                         -0.1162509              -3.1633 (LUMO)
        20                          0.1113146               3.0290
        21                          0.1499483               4.0803
        22                          0.1618984               4.4055
        23                          0.1707440               4.6462
        24                          0.1857211               5.0537
        25                          0.1915680               5.2128
        26                          0.2038784               5.5478
        27                          0.2326502               6.3307
        28                          0.2381526               6.4805
        29                          0.2515084               6.8439
       ...                                ...                  ...
        33                          0.6508580              17.7107
      -------------------------------------------------------------
                  HL-Gap            0.1686572 Eh            4.5894 eV

     #   Z          covCN         q      C6AA      α(0)
     1   6 C        3.753    -0.069    21.886     6.671
     2   6 C        2.890    -0.173    32.503     9.347
     3   1 H        0.924    -0.003     3.111     2.758
     4   1 H        0.924    -0.002     3.089     2.749
     5   1 H        0.925     0.006     2.956     2.688
     6   6 C        2.815     0.137    25.009     8.194
     7   1 H        0.925    -0.058     4.300     3.243
     8   1 H        0.924    -0.003     3.112     2.759
     9   6 C        3.803    -0.068    21.793     6.646
    10   1 H        0.924     0.003     3.011     2.714
    11   6 C        3.752    -0.090    22.275     6.731
    12   8 O        0.856    -0.762    30.458     7.399
    13   1 H        0.925     0.024     2.666     2.554
    14   1 H        0.925     0.034     2.530     2.487
    15   1 H        0.925     0.024     2.674     2.557

Wiberg/Mayer (AO) data.
largest (>0.10) Wiberg bond orders for each atom

     #   Z sym  total        # sym  WBO       # sym  WBO       # sym  WBO
 ---------------------------------------------------------------------------
     1   6 C    3.996 --     2 C    1.026     5 H    0.987     4 H    0.980
                             3 H    0.979
     2   6 C    3.883 --     6 C    1.640     1 C    1.026     7 H    0.969
                            12 O    0.213
     3   1 H    1.000 --     1 C    0.979
     4   1 H    1.000 --     1 C    0.980
     5   1 H    1.000 --     1 C    0.987
     6   6 C    3.964 --     2 C    1.640    12 O    1.323     9 C    0.955
     7   1 H    0.997 --     2 C    0.969
     8   1 H    1.000 --     9 C    0.980
     9   6 C    3.992 --    11 C    1.011     8 H    0.980    10 H    0.979
                             6 C    0.955
    10   1 H    1.000 --     9 C    0.979
    11   6 C    3.998 --     9 C    1.011    13 H    0.989    15 H    0.989
                            14 H    0.987
    12   8 O    1.622 --     6 C    1.323     2 C    0.213
    13   1 H    0.999 --    11 C    0.989
    14   1 H    0.998 --    11 C    0.987
    15   1 H    0.999 --    11 C    0.989
 ---------------------------------------------------------------------------

molecular dipole:
                 x           y           z       tot (Debye)
 q only:       13.091       7.227      -3.451
   full:       13.113       7.270      -3.295      39.018

 projected vibrational frequencies (cm⁻¹)
eigval :       -0.00    -0.00    -0.00    -0.00     0.00     0.00
eigval :       32.74   142.16   162.67   203.03   243.07   281.89
eigval :      410.20   553.06   615.28   682.55   816.27   836.89
eigval :      994.50  1043.66  1046.65  1061.74  1083.09  1117.93
eigval :     1197.70  1242.37  1300.50  1351.13  1387.99  1401.99
eigval :     1481.05  1490.71  1501.46  1506.04  1509.70  1668.74
eigval :     2877.74  2915.67  2930.78  2946.99  2974.45  2993.43
eigval :     3006.40  3013.91  3023.26

   temp. (K)  partition function   enthalpy   heat capacity  entropy
                                   cal/mol     cal/K/mol   cal/K/mol   J/K/mol
 298.15  VIB   118.                 3024.077     19.109     18.188
         ROT  0.167E+06              888.752      2.981     26.876
         INT  0.197E+08             3912.829     22.090     45.064
         TR   0.760E+27             1481.254      4.968     39.220
         TOT                        5394.0834    27.0580    84.2838   352.6436

       T/K    H(0)-H(T)+PV         H(T)/Eh          T*S/Eh         G(T)/Eh
   ------------------------------------------------------------------------
    298.15    0.859602E-02    0.134008E+00    0.400460E-01    0.939618E-01
   ------------------------------------------------------------------------

         :::::::::::::::::::::::::::::::::::::::::::::::::::::
         ::                  THERMODYNAMIC                  ::
         :::::::::::::::::::::::::::::::::::::::::::::::::::::
         :: total free energy         -19.526967645180 Eh   ::
         ::.................................................::
         :: total energy              -19.620929450290 Eh   ::
         :: zero point energy           0.125411756153 Eh   ::
         :: G(RRHO) w/o ZPVE           -0.031449951043 Eh   ::
         :: G(RRHO) contrib.            0.093961805110 Eh   ::
         :::::::::::::::::::::::::::::::::::::::::::::::::::::

           -------------------------------------------------
          | TOTAL ENERGY              -19.620929450290 Eh   |
          | TOTAL ENTHALPY            -19.486921675133 Eh   |
          | TOTAL FREE ENERGY         -19.526967645180 Eh   |
          | GRADIENT NORM               0.000496815511 Eh/α |
          | HOMO-LUMO GAP               4.589396521534 eV   |
           -------------------------------------------------

 * finished run on 2025/10/18 at 03:58:42.549
