                         Program Version 5.0.4 -  RELEASE  -
|  1> !OPT PBE D3BJ def2-TZVP CPCM(water)
|  2>
|  3> *xyz -1 1
|  4> C     -3.790873   -3.915288   -2.859790
|  5> C     -4.268123   -2.451639   -2.934392
|  6> O     -3.212619   -1.688049   -2.704699
|  7> H     -4.635407   -4.599774   -3.003980
|  8> C     -5.317258   -2.207753   -1.819293
|  9> H     -4.809351   -2.368257   -3.888180
| 10> H     -3.055097   -4.138511   -3.643244
| 11> C     -6.020514   -0.856422   -1.930185
| 12> H     -3.335487   -4.159480   -1.890841
| 13> H     -6.088612   -2.987090   -1.883029
| 14> H     -4.871821   -2.300455   -0.818569
| 15> H     -6.490114   -0.738839   -2.912056
| 16> H     -6.804092   -0.778997   -1.169471
| 17> H     -5.324476   -0.025998   -1.777232
| 18> *
| 19>
| 20>                          ****END OF INPUT****
 Total Charge           Charge          ....   -1
 Multiplicity           Mult            ....    1
 Number of Electrons    NEL             ....   42
Dispersion correction           -0.009643023
FINAL SINGLE POINT ENERGY      -232.946669649002
Dispersion correction            ... done
Dispersion correction           -0.009585300
FINAL SINGLE POINT ENERGY      -232.955005650276
Dispersion correction            ... done
Dispersion correction           -0.009592746
FINAL SINGLE POINT ENERGY      -232.956071429901
Dispersion correction            ... done
FINAL SINGLE POINT ENERGY      -232.956229024095
FINAL SINGLE POINT ENERGY      -232.956263479050
FINAL SINGLE POINT ENERGY      -232.956284323900
Dispersion correction            ... done
Dispersion correction           -0.009614742
FINAL SINGLE POINT ENERGY      -232.956293897942
Dispersion correction            ... done
Dispersion correction           -0.009614908
FINAL SINGLE POINT ENERGY      -232.956298519387
Dispersion correction            ... done
                    ***********************HURRAY********************

CARTESIAN COORDINATES (ANGSTROEM)
---------------------------------
  C     -3.787834   -3.926379   -2.832330
  C     -4.258714   -2.451691   -2.906229
  O     -3.230239   -1.562768   -2.791404
  H     -4.614371   -4.648341   -2.961586
  C     -5.380992   -2.247857   -1.846763
  H     -4.805964   -2.370254   -3.903755
  H     -3.033855   -4.120377   -3.611801
  C     -6.011062   -0.859618   -1.907895
  H     -3.314397   -4.110870   -1.851829
  H     -6.161957   -3.021406   -1.972175
  H     -4.925596   -2.408084   -0.850455
  H     -6.521900   -0.701855   -2.872608
  H     -6.749132   -0.695413   -1.107873
  H     -5.227830   -0.091639   -1.818259

 Multiplicity           Mult            ....    1
 Number of Electrons    NEL             ....   42
 Basis Dimension        Dim             ....  209

ORBITAL ENERGIES
----------------

  NO   OCC          E(Eh)            E(eV)
   0   2.0000     -18.613774      -506.5065
   1   2.0000      -9.879325      -268.8301
   2   2.0000      -9.851794      -268.0810
   3   2.0000      -9.846888      -267.9474
   4   2.0000      -9.840958      -267.7861
   5   2.0000      -0.798263       -21.7218
   6   2.0000      -0.665090       -18.0980
   7   2.0000      -0.616409       -16.7733
   8   2.0000      -0.535038       -14.5591
   9   2.0000      -0.456444       -12.4205
  10   2.0000      -0.380756       -10.3609
  11   2.0000      -0.359479        -9.7819
  12   2.0000      -0.350194        -9.5293
  13   2.0000      -0.336301        -9.1512
  14   2.0000      -0.302764        -8.2386
  15   2.0000      -0.285112        -7.7583
  16   2.0000      -0.270850        -7.3702
  17   2.0000      -0.260876        -7.0988
  18   2.0000      -0.255614        -6.9556
  19   2.0000      -0.126508        -3.4424
  20   2.0000      -0.125869        -3.4251
  21   0.0000       0.035191         0.9576
  22   0.0000       0.052982         1.4417
  23   0.0000       0.067327         1.8321
  24   0.0000       0.087435         2.3792
  25   0.0000       0.099258         2.7009

MULLIKEN ATOMIC CHARGES
-----------------------
   0 C :   -0.324430
   1 C :    0.091319
   2 O :   -0.818890
   3 H :    0.070974
   4 C :   -0.114477
   5 H :   -0.076363
   6 H :    0.087143
   7 C :   -0.341248
   8 H :    0.064740
   9 H :    0.051598
  10 H :    0.035647
  11 H :    0.094132
  12 H :    0.114246
  13 H :    0.065611
Sum of atomic charges:   -1.0000000

LOEWDIN ATOMIC CHARGES
----------------------
   0 C :   -0.349114
   1 C :   -0.555658
   2 O :   -0.407697
   3 H :    0.105542
   4 C :   -0.314674
   5 H :    0.086940
   6 H :    0.104452
   7 C :   -0.350527
   8 H :    0.103933
   9 H :    0.122347
  10 H :    0.118395
  11 H :    0.114462
  12 H :    0.114255
  13 H :    0.107343

  Mayer bond orders larger than 0.100000
B(  0-C ,  1-C ) :   0.9369 B(  0-C ,  3-H ) :   0.9412 B(  0-C ,  6-H ) :   0.9712
B(  0-C ,  8-H ) :   0.9588 B(  1-C ,  2-O ) :   1.5181 B(  1-C ,  4-C ) :   0.9253
B(  1-C ,  5-H ) :   0.8910 B(  2-O ,  4-C ) :  -0.1201 B(  4-C ,  7-C ) :   1.0071
B(  4-C ,  9-H ) :   0.9279 B(  4-C , 10-H ) :   0.9383 B(  7-C , 11-H ) :   0.9626
B(  7-C , 12-H ) :   0.9675 B(  7-C , 13-H ) :   0.9568

Dispersion correction           -0.009614023
FINAL SINGLE POINT ENERGY      -232.956299871315

DIPOLE MOMENT
-------------
                                X             Y             Z
Electronic contribution:      2.24919       1.19068      -0.53759
Nuclear contribution   :     -4.32113      -2.16310       1.10401
                        -----------------------------------------
Total Dipole Moment    :     -2.07194      -0.97242       0.56642
                        -----------------------------------------
Magnitude (a.u.)       :      2.35783
Magnitude (Debye)      :      5.99312

Rotational constants in cm-1:     0.277534     0.115767     0.089923
Rotational constants in MHz :  8320.273987  3470.605471  2695.820817

                             ****ORCA TERMINATED NORMALLY****
TOTAL RUN TIME: 0 days 0 hours 4 minutes 58 seconds 175 msec
