   * xtb version 6.7.1 (edcfbbe) compiled by 'albert@albert-system' on 2024-07-22

   ID    Z sym.   atoms
    1    6 C      1, 2, 6, 8
    2    1 H      3-5, 7, 9, 10, 12-14
    3    8 O      11

          program call               : xtb xyz.xyz --charge -1 --ohess
          :  Hamiltonian                  GFN2-xTB          :
 * total energy  :   -17.3681699 Eh     change       -0.2343725E-10 Eh
 * total energy  :   -17.3755760 Eh     change       -0.7406137E-02 Eh
 * total energy  :   -17.3764324 Eh     change       -0.8563786E-03 Eh
 * total energy  :   -17.3768077 Eh     change       -0.3752876E-03 Eh
 * total energy  :   -17.3768201 Eh     change       -0.1240265E-04 Eh
 * total energy  :   -17.3768217 Eh     change       -0.1652592E-05 Eh
   *** GEOMETRY OPTIMIZATION CONVERGED AFTER 6 ITERATIONS ***

 final structure:
================
14
 xtb: 6.7.1 (edcfbbe)
C           -3.84411050632271       -4.07810750283932        1.87061512109937
C           -2.80751286806166       -3.11847747695173        2.59027485181782
H           -3.54097432916667       -4.21780440378876        0.83380042620581
H           -3.83112339771025       -5.05024796633865        2.36169383955895
H           -4.86117986048541       -3.67998927585641        1.89436642685268
C           -3.38924834893878       -2.90464739923170        4.04945788870389
H           -4.41536261927130       -2.53000089234238        4.03451760952641
C           -2.97670238276486       -1.71619911119933        1.87033165823816
H           -3.36434410745157       -3.85220058883041        4.58602170286974
H           -2.75936149404816       -2.19521502135402        4.58457371734001
O           -1.58273624332864       -3.56829648423369        2.57688562798092
H           -4.00914122389156       -1.36001312902870        1.89677861921649
H           -2.33527183894851       -0.98421205669235        2.35934906490588
H           -2.65818577960994       -1.80675969131253        0.83266744568388

          :  Hamiltonian                  GFN2-xTB          :
         :: gradient norm              0.000572979894 Eh/a0 ::
         :: HOMO-LUMO gap             10.034441689469 eV    ::
         :: SCC energy               -17.573619643903 Eh    ::
         :: -> dispersion             -0.008600331568 Eh    ::
         :: repulsion energy           0.196797906627 Eh    ::

    * Orbital Energies and Occupations

         #    Occupation            Energy/Eh            Energy/eV
      -------------------------------------------------------------
         1        2.0000           -0.4182259             -11.3805
       ...           ...                  ...                  ...
         4        2.0000           -0.3878526             -10.5540
         5        2.0000           -0.3327766              -9.0553
         6        2.0000           -0.3065066              -8.3405
         7        2.0000           -0.3064977              -8.3402
         8        2.0000           -0.3048878              -8.2964
         9        2.0000           -0.2855026              -7.7689
        10        2.0000           -0.2854875              -7.7685
        11        2.0000           -0.2706664              -7.3652
        12        2.0000           -0.2424004              -6.5960
        13        2.0000           -0.2423897              -6.5958
        14        2.0000           -0.2128791              -5.7927
        15        2.0000           -0.0952740              -2.5925
        16        2.0000           -0.0952732              -2.5925 (HOMO)
        17                          0.2734858               7.4419 (LUMO)
        18                          0.2784001               7.5757
        19                          0.2784006               7.5757
        20                          0.3094788               8.4213
        21                          0.3535210               9.6198
        22                          0.3699857              10.0678
        23                          0.3700057              10.0684
        24                          0.3949078              10.7460
        25                          0.3949607              10.7474
        26                          0.4233335              11.5195
        27                          0.4321140              11.7584
       ...                                ...                  ...
        29                          0.6326476              17.2152
      -------------------------------------------------------------
                  HL-Gap            0.3687589 Eh           10.0344 eV

     #   Z          covCN         q      C6AA      α(0)
     1   6 C        3.747    -0.101    22.504     6.766
     2   6 C        3.756     0.197    17.542     5.972
     3   1 H        0.925    -0.006     3.171     2.785
     4   1 H        0.925    -0.006     3.172     2.785
     5   1 H        0.924    -0.032     3.687     3.003
     6   6 C        3.747    -0.101    22.504     6.766
     7   1 H        0.924    -0.032     3.687     3.003
     8   6 C        3.747    -0.101    22.504     6.766
     9   1 H        0.925    -0.006     3.171     2.785
    10   1 H        0.925    -0.006     3.172     2.785
    11   8 O        0.856    -0.757    30.312     7.381
    12   1 H        0.924    -0.032     3.686     3.003
    13   1 H        0.925    -0.006     3.171     2.785
    14   1 H        0.925    -0.006     3.172     2.785

Wiberg/Mayer (AO) data.
largest (>0.10) Wiberg bond orders for each atom

     #   Z sym  total        # sym  WBO       # sym  WBO       # sym  WBO
 ---------------------------------------------------------------------------
     1   6 C    3.977 --     4 H    0.991     3 H    0.991     5 H    0.988
                             2 C    0.914
     2   6 C    3.973 --    11 O    1.232     8 C    0.914     1 C    0.914
                             6 C    0.914
     3   1 H    1.000 --     1 C    0.991
     4   1 H    1.000 --     1 C    0.991
     5   1 H    0.999 --     1 C    0.988
     6   6 C    3.977 --     9 H    0.991    10 H    0.991     7 H    0.988
                             2 C    0.914
     7   1 H    0.999 --     6 C    0.988
     8   6 C    3.977 --    13 H    0.991    14 H    0.991    12 H    0.988
                             2 C    0.914
     9   1 H    1.000 --     6 C    0.991
    10   1 H    1.000 --     6 C    0.991
    11   8 O    1.461 --     2 C    1.232
    12   1 H    0.999 --     8 C    0.988
    13   1 H    1.000 --     8 C    0.991
    14   1 H    1.000 --     8 C    0.991
 ---------------------------------------------------------------------------

molecular dipole:
                 x           y           z       tot (Debye)
 q only:        4.213       6.294      -4.883
   full:        3.751       6.464      -4.878      22.684

 projected vibrational frequencies (cm⁻¹)
eigval :       -0.00    -0.00     0.00     0.00     0.00     0.00
eigval :      147.86   222.94   222.99   324.10   324.11   415.23
eigval :      469.59   469.64   701.03   787.80   787.88   878.38
eigval :      972.30   972.32  1017.97  1105.78  1105.88  1272.01
eigval :     1336.31  1336.34  1362.80  1493.07  1505.34  1505.41
eigval :     1515.40  1515.44  1530.23  2927.45  2927.50  2947.07
eigval :     2985.68  2996.73  2996.81  3002.76  3002.79  3007.80

   temp. (K)  partition function   enthalpy   heat capacity  entropy
                                   cal/mol     cal/K/mol   cal/K/mol   J/K/mol
 298.15  VIB   12.0                 2408.867     18.232     13.008
         ROT  0.283E+05              888.752      2.981     23.353
         INT  0.339E+06             3297.619     21.213     36.362
         TR   0.605E+27             1481.254      4.968     38.767
         TOT                        4778.8729    26.1811    75.1288   314.3388

       T/K    H(0)-H(T)+PV         H(T)/Eh          T*S/Eh         G(T)/Eh
   ------------------------------------------------------------------------
    298.15    0.761562E-02    0.126292E+00    0.356961E-01    0.905955E-01
   ------------------------------------------------------------------------

         :::::::::::::::::::::::::::::::::::::::::::::::::::::
         ::                  THERMODYNAMIC                  ::
         :::::::::::::::::::::::::::::::::::::::::::::::::::::
         :: total free energy         -17.286226239047 Eh   ::
         ::.................................................::
         :: total energy              -17.376821737276 Eh   ::
         :: zero point energy           0.118675983766 Eh   ::
         :: G(RRHO) w/o ZPVE           -0.028080485538 Eh   ::
         :: G(RRHO) contrib.            0.090595498228 Eh   ::
         :::::::::::::::::::::::::::::::::::::::::::::::::::::

           -------------------------------------------------
          | TOTAL ENERGY              -17.376821737276 Eh   |
          | TOTAL ENTHALPY            -17.250530134801 Eh   |
          | TOTAL FREE ENERGY         -17.286226239047 Eh   |
          | GRADIENT NORM               0.000572974774 Eh/α |
          | HOMO-LUMO GAP              10.034441605187 eV   |
           -------------------------------------------------

 * finished run on 2025/10/18 at 02:25:52.298
