   * xtb version 6.7.1 (edcfbbe) compiled by 'albert@albert-system' on 2024-07-22

   ID    Z sym.   atoms
    1    6 C      1, 2
    2    1 H      3-5, 7, 8, 10, 11
    3   16 S      6
    4    8 O      9

          program call               : xtb tb_lite_results_shiftn0p05_gp369_b0_rot90_complex.xyz --ohess --chrg -1 --alpb water
      * Solvation model:               ALPB
        Solvent                        water
        Solvent mass                       1.8000E+01 g/mol
          :  Hamiltonian                  GFN2-xTB          :
 * total energy  :   -15.4551039 Eh     change       -0.1399947E-10 Eh
 * total energy  :   -15.4560029 Eh     change       -0.8990541E-03 Eh
 * total energy  :   -15.4560752 Eh     change       -0.7227481E-04 Eh
 * total energy  :   -15.4560965 Eh     change       -0.2132277E-04 Eh
 * total energy  :   -15.4561072 Eh     change       -0.1064415E-04 Eh
 * total energy  :   -15.4561202 Eh     change       -0.1302173E-04 Eh
 * total energy  :   -15.4561269 Eh     change       -0.6674740E-05 Eh
 * total energy  :   -15.4561522 Eh     change       -0.2535976E-04 Eh
 * total energy  :   -15.4561694 Eh     change       -0.1714008E-04 Eh
 * total energy  :   -15.4560722 Eh     change        0.9711458E-04 Eh
 * total energy  :   -15.4562012 Eh     change       -0.1289229E-03 Eh
 * total energy  :   -15.4562087 Eh     change       -0.7557123E-05 Eh
 * total energy  :   -15.4562208 Eh     change       -0.1211798E-04 Eh
 * total energy  :   -15.4562308 Eh     change       -0.1000803E-04 Eh
 * total energy  :   -15.4560509 Eh     change        0.1799831E-03 Eh
 * total energy  :   -15.4562359 Eh     change       -0.1850562E-03 Eh
 * total energy  :   -15.4562417 Eh     change       -0.5739246E-05 Eh
 * total energy  :   -15.4562446 Eh     change       -0.2899223E-05 Eh
   *** GEOMETRY OPTIMIZATION CONVERGED AFTER 18 ITERATIONS ***

 final structure:
================
11
 xtb: 6.7.1 (edcfbbe)
C           -2.18620464769227        1.49557480260098       -0.04174090921396
C           -0.70682367775276        1.70070314375997       -0.32852651394222
H           -2.31057247996506        1.09040581180975        0.96117081414269
H           -2.70313238725660        2.45274080728975       -0.09103624531026
H           -2.62120548614374        0.80959744535488       -0.76746340542615
S            0.08612396225738        2.84821557047130        0.83521611931147
H           -0.16640695092443        0.74738783038192       -0.26832278765582
H           -0.56141836670603        2.11321549348105       -1.33566978979879
O           -0.94898955289697        1.42247296622962        3.37070155194416
H           -0.61272200874964        1.89403728247986        2.57083819252472
H           -0.47845251899945        1.82609127621570        4.10853468425903

          :  Hamiltonian                  GFN2-xTB          :
         :: gradient norm              0.000464165580 Eh/a0 ::
         :: HOMO-LUMO gap              4.370856646535 eV    ::
         :: SCC energy               -15.590418541310 Eh    ::
         :: -> dispersion             -0.005709149690 Eh    ::
         :: -> Gsolv                  -0.101575340969 Eh    ::
         :: repulsion energy           0.134173983070 Eh    ::

    * Orbital Energies and Occupations

         #    Occupation            Energy/Eh            Energy/eV
      -------------------------------------------------------------
         1        2.0000           -0.6547115             -17.8156
         2        2.0000           -0.6361356             -17.3101
         3        2.0000           -0.6002403             -16.3334
         4        2.0000           -0.5579670             -15.1831
         5        2.0000           -0.5319036             -14.4738
         6        2.0000           -0.4985879             -13.5673
         7        2.0000           -0.4860291             -13.2255
         8        2.0000           -0.4832208             -13.1491
         9        2.0000           -0.4579742             -12.4621
        10        2.0000           -0.4402827             -11.9807
        11        2.0000           -0.4195069             -11.4154
        12        2.0000           -0.4056452             -11.0382
        13        2.0000           -0.2957446              -8.0476
        14        2.0000           -0.2908557              -7.9146 (HOMO)
        15                         -0.1302297              -3.5437 (LUMO)
        16                          0.0233925               0.6365
        17                          0.0318637               0.8671
        18                          0.0450953               1.2271
        19                          0.0561095               1.5268
        20                          0.1319487               3.5905
        21                          0.1444128               3.9297
        22                          0.1652497               4.4967
        23                          0.1850744               5.0361
        24                          0.2016672               5.4876
        25                          0.2465183               6.7081
       ...                                ...                  ...
        28                          0.4044399              11.0054
      -------------------------------------------------------------
                  HL-Gap            0.1606260 Eh            4.3709 eV

     #   Z          covCN         q      C6AA      α(0)
     1   6 C        3.776    -0.081    22.076     6.694
     2   6 C        3.792     0.062    19.548     6.296
     3   1 H        0.925     0.033     2.547     2.496
     4   1 H        0.925     0.025     2.664     2.552
     5   1 H        0.925     0.021     2.724     2.581
     6  16 S        1.026    -0.937   184.731    22.988
     7   1 H        0.924    -0.032     3.674     2.998
     8   1 H        0.924    -0.034     3.724     3.018
     9   8 O        1.607    -0.683    27.268     7.048
    10   1 H        0.831     0.278     0.786     1.390
    11   1 H        0.805     0.349     0.590     1.207

Wiberg/Mayer (AO) data.
largest (>0.10) Wiberg bond orders for each atom

     #   Z sym  total        # sym  WBO       # sym  WBO       # sym  WBO
 ---------------------------------------------------------------------------
     1   6 C    3.999 --     2 C    1.021     4 H    0.989     3 H    0.987
                             5 H    0.984
     2   6 C    3.991 --     1 C    1.021     6 S    1.010     7 H    0.980
                             8 H    0.980
     3   1 H    0.999 --     1 C    0.987
     4   1 H    0.999 --     1 C    0.989
     5   1 H    1.000 --     1 C    0.984
     6  16 S    1.162 --     2 C    1.010
     7   1 H    0.999 --     2 C    0.980
     8   1 H    0.999 --     2 C    0.980
     9   8 O    1.768 --    11 H    0.877    10 H    0.854
    10   1 H    0.923 --     9 O    0.854
    11   1 H    0.878 --     9 O    0.877
 ---------------------------------------------------------------------------

molecular dipole:
                 x           y           z       tot (Debye)
 q only:        0.362      -4.678      -1.673
   full:        0.299      -4.863      -2.141      13.527

 projected vibrational frequencies (cm⁻¹)
eigval :       -0.00    -0.00     0.00     0.00     0.00     0.00
eigval :       52.55    60.85    71.25   189.52   234.33   311.68
eigval :      425.97   620.05   689.29   791.49  1020.40  1028.92
eigval :     1065.41  1242.37  1264.39  1392.98  1479.07  1484.06
eigval :     1504.11  1518.35  2841.95  2880.03  2968.03  2984.98
eigval :     3011.98  3025.16  3589.07

   temp. (K)  partition function   enthalpy   heat capacity  entropy
                                   cal/mol     cal/K/mol   cal/K/mol   J/K/mol
 298.15  VIB   252.                 2954.022     15.956     19.823
         ROT  0.142E+06              888.752      2.981     26.554
         INT  0.357E+08             3842.774     18.937     46.377
         TR   0.681E+27             1481.254      4.968     39.003
         TOT                        5324.0283    23.9050    85.3801   357.2305

       T/K    H(0)-H(T)+PV         H(T)/Eh          T*S/Eh         G(T)/Eh
   ------------------------------------------------------------------------
    298.15    0.848438E-02    0.944812E-01    0.405669E-01    0.539143E-01
   ------------------------------------------------------------------------

         :::::::::::::::::::::::::::::::::::::::::::::::::::::
         ::                  THERMODYNAMIC                  ::
         :::::::::::::::::::::::::::::::::::::::::::::::::::::
         :: total free energy         -15.402330209352 Eh   ::
         ::.................................................::
         :: total energy              -15.456244558203 Eh   ::
         :: zero point energy           0.085996831201 Eh   ::
         :: G(RRHO) w/o ZPVE           -0.032082482350 Eh   ::
         :: G(RRHO) contrib.            0.053914348851 Eh   ::
         :::::::::::::::::::::::::::::::::::::::::::::::::::::

           -------------------------------------------------
          | TOTAL ENERGY              -15.456244558203 Eh   |
          | TOTAL ENTHALPY            -15.361763347870 Eh   |
          | TOTAL FREE ENERGY         -15.402330209352 Eh   |
          | GRADIENT NORM               0.000464732357 Eh/α |
          | HOMO-LUMO GAP               4.370855696939 eV   |
           -------------------------------------------------

 * finished run on 2025/10/18 at 18:27:32.732
normal termination of xtb
