   * xtb version 6.7.1 (edcfbbe) compiled by 'albert@albert-system' on 2024-07-22

   ID    Z sym.   atoms
    1    6 C      1, 2
    2    1 H      3-5, 7, 8, 10, 11
    3   16 S      6
    4    8 O      9

          program call               : xtb tb_lite_results_shiftn0p1_gp369_b0_rot90_complex.xyz --ohess --chrg -1 --alpb water
      * Solvation model:               ALPB
        Solvent                        water
        Solvent mass                       1.8000E+01 g/mol
          :  Hamiltonian                  GFN2-xTB          :
 * total energy  :   -15.4548624 Eh     change       -0.1081091E-10 Eh
 * total energy  :   -15.4560020 Eh     change       -0.1139552E-02 Eh
 * total energy  :   -15.4560740 Eh     change       -0.7201380E-04 Eh
 * total energy  :   -15.4560944 Eh     change       -0.2042666E-04 Eh
 * total energy  :   -15.4561047 Eh     change       -0.1027456E-04 Eh
 * total energy  :   -15.4561180 Eh     change       -0.1329614E-04 Eh
 * total energy  :   -15.4561307 Eh     change       -0.1274664E-04 Eh
 * total energy  :   -15.4561553 Eh     change       -0.2459440E-04 Eh
 * total energy  :   -15.4561737 Eh     change       -0.1840614E-04 Eh
 * total energy  :   -15.4560469 Eh     change        0.1268485E-03 Eh
 * total energy  :   -15.4562019 Eh     change       -0.1550223E-03 Eh
 * total energy  :   -15.4562092 Eh     change       -0.7276845E-05 Eh
 * total energy  :   -15.4562180 Eh     change       -0.8853987E-05 Eh
 * total energy  :   -15.4562258 Eh     change       -0.7756266E-05 Eh
 * total energy  :   -15.4551640 Eh     change        0.1061832E-02 Eh
 * total energy  :   -15.4561948 Eh     change       -0.1030811E-02 Eh
 * total energy  :   -15.4562316 Eh     change       -0.3680903E-04 Eh
 * total energy  :   -15.4562453 Eh     change       -0.1373989E-04 Eh
 * total energy  :   -15.4562468 Eh     change       -0.1437497E-05 Eh
   *** GEOMETRY OPTIMIZATION CONVERGED AFTER 19 ITERATIONS ***

 final structure:
================
11
 xtb: 6.7.1 (edcfbbe)
C           -2.18628865882269        1.49497490917843       -0.05443638287621
C           -0.70488971525501        1.69556064075372       -0.33387613392376
H           -2.31742405140215        1.10573378510244        0.95379711759479
H           -2.70277828358136        2.45112027571533       -0.12248469688476
H           -2.61632637600359        0.79756879200264       -0.77207498783173
S            0.07744446342354        2.86801465902900        0.81178841334753
H           -0.16444239028695        0.74442971540797       -0.24943676781107
H           -0.55199217455522        2.08688125653822       -1.34805911577627
O           -0.92362326814109        1.44146803144964        3.35801162777858
H           -0.59747019265617        1.91274543349590        2.55386973869305
H           -0.46266004657007        1.86129835234360        4.09228740133903

          :  Hamiltonian                  GFN2-xTB          :
         :: gradient norm              0.000420946011 Eh/a0 ::
         :: HOMO-LUMO gap              4.373008805533 eV    ::
         :: SCC energy               -15.590600873632 Eh    ::
         :: -> dispersion             -0.005710601655 Eh    ::
         :: -> Gsolv                  -0.101563407517 Eh    ::
         :: repulsion energy           0.134354116602 Eh    ::

    * Orbital Energies and Occupations

         #    Occupation            Energy/Eh            Energy/eV
      -------------------------------------------------------------
         1        2.0000           -0.6547448             -17.8165
         2        2.0000           -0.6361603             -17.3108
         3        2.0000           -0.6002646             -16.3340
         4        2.0000           -0.5579967             -15.1839
         5        2.0000           -0.5319772             -14.4758
         6        2.0000           -0.4985987             -13.5676
         7        2.0000           -0.4859704             -13.2239
         8        2.0000           -0.4832568             -13.1501
         9        2.0000           -0.4579929             -12.4626
        10        2.0000           -0.4403160             -11.9816
        11        2.0000           -0.4195087             -11.4154
        12        2.0000           -0.4056702             -11.0388
        13        2.0000           -0.2957397              -8.0475
        14        2.0000           -0.2909160              -7.9162 (HOMO)
        15                         -0.1302109              -3.5432 (LUMO)
        16                          0.0234760               0.6388
        17                          0.0318548               0.8668
        18                          0.0449329               1.2227
        19                          0.0561883               1.5290
        20                          0.1321767               3.5967
        21                          0.1450569               3.9472
        22                          0.1655183               4.5040
        23                          0.1851042               5.0369
        24                          0.2016952               5.4884
        25                          0.2466597               6.7120
       ...                                ...                  ...
        28                          0.4049637              11.0196
      -------------------------------------------------------------
                  HL-Gap            0.1607051 Eh            4.3730 eV

     #   Z          covCN         q      C6AA      α(0)
     1   6 C        3.777    -0.081    22.075     6.694
     2   6 C        3.792     0.062    19.549     6.297
     3   1 H        0.925     0.033     2.550     2.497
     4   1 H        0.925     0.025     2.664     2.552
     5   1 H        0.925     0.021     2.724     2.581
     6  16 S        1.027    -0.937   184.719    22.987
     7   1 H        0.924    -0.032     3.670     2.996
     8   1 H        0.924    -0.034     3.723     3.017
     9   8 O        1.607    -0.683    27.271     7.048
    10   1 H        0.831     0.278     0.786     1.390
    11   1 H        0.805     0.349     0.590     1.207

Wiberg/Mayer (AO) data.
largest (>0.10) Wiberg bond orders for each atom

     #   Z sym  total        # sym  WBO       # sym  WBO       # sym  WBO
 ---------------------------------------------------------------------------
     1   6 C    3.999 --     2 C    1.021     4 H    0.989     3 H    0.987
                             5 H    0.984
     2   6 C    3.991 --     1 C    1.021     6 S    1.010     7 H    0.980
                             8 H    0.980
     3   1 H    0.999 --     1 C    0.987
     4   1 H    0.999 --     1 C    0.989
     5   1 H    1.000 --     1 C    0.984
     6  16 S    1.163 --     2 C    1.010
     7   1 H    0.999 --     2 C    0.980
     8   1 H    0.999 --     2 C    0.980
     9   8 O    1.768 --    11 H    0.877    10 H    0.853
    10   1 H    0.923 --     9 O    0.853
    11   1 H    0.878 --     9 O    0.877
 ---------------------------------------------------------------------------

molecular dipole:
                 x           y           z       tot (Debye)
 q only:        0.364      -4.702      -1.638
   full:        0.300      -4.894      -2.101      13.557

 projected vibrational frequencies (cm⁻¹)
eigval :       -0.00    -0.00     0.00     0.00     0.00     0.00
eigval :      -36.35    50.04    61.45   187.32   233.06   311.18
eigval :      418.86   612.45   689.56   790.86  1020.23  1028.70
eigval :     1065.32  1242.16  1264.14  1392.70  1478.99  1483.94
eigval :     1503.91  1516.84  2845.00  2882.95  2966.70  2985.66
eigval :     3012.82  3025.73  3594.74

   temp. (K)  partition function   enthalpy   heat capacity  entropy
                                   cal/mol     cal/K/mol   cal/K/mol   J/K/mol
 298.15  VIB   77.2                 2470.540     14.178     15.962
         ROT  0.142E+06              888.752      2.981     26.553
         INT  0.109E+08             3359.292     17.159     42.515
         TR   0.681E+27             1481.254      4.968     39.003
         TOT                        4840.5463    22.1270    81.5176   341.0698

       T/K    H(0)-H(T)+PV         H(T)/Eh          T*S/Eh         G(T)/Eh
   ------------------------------------------------------------------------
    298.15    0.771390E-02    0.935218E-01    0.387317E-01    0.547902E-01
   ------------------------------------------------------------------------

         :::::::::::::::::::::::::::::::::::::::::::::::::::::
         ::                  THERMODYNAMIC                  ::
         :::::::::::::::::::::::::::::::::::::::::::::::::::::
         :: total free energy         -15.401456593367 Eh   ::
         ::.................................................::
         :: total energy              -15.456246756679 Eh   ::
         :: zero point energy           0.085807923178 Eh   ::
         :: G(RRHO) w/o ZPVE           -0.031017759865 Eh   ::
         :: G(RRHO) contrib.            0.054790163312 Eh   ::
         :::::::::::::::::::::::::::::::::::::::::::::::::::::

           -------------------------------------------------
          | TOTAL ENERGY              -15.456246756679 Eh   |
          | TOTAL ENTHALPY            -15.362724931932 Eh   |
          | TOTAL FREE ENERGY         -15.401456593367 Eh   |
          | GRADIENT NORM               0.000420946278 Eh/α |
          | HOMO-LUMO GAP               4.373008119873 eV   |
           -------------------------------------------------

 * finished run on 2025/10/18 at 18:27:20.136
normal termination of xtb
