   * xtb version 6.7.1 (edcfbbe) compiled by 'albert@albert-system' on 2024-07-22

   ID    Z sym.   atoms
    1    6 C      1, 2
    2    1 H      3-5, 7, 8
    3   16 S      6

          program call               : xtb tb_lite_results_shiftn0p15_gp363_b0_rot90_solute.xyz --ohess --chrg -1
          :  Hamiltonian                  GFN2-xTB          :
 * total energy  :   -10.2678441 Eh     change       -0.7123191E-12 Eh
 * total energy  :   -10.2684810 Eh     change       -0.6368600E-03 Eh
 * total energy  :   -10.2685095 Eh     change       -0.2853852E-04 Eh
 * total energy  :   -10.2685124 Eh     change       -0.2856936E-05 Eh
   *** GEOMETRY OPTIMIZATION CONVERGED AFTER 4 ITERATIONS ***

 final structure:
================
8
 xtb: 6.7.1 (edcfbbe)
C           -2.16450516377429        1.50405888078287        0.01310830386522
C           -0.70813591893899        1.74144381020327       -0.37056741605974
H           -2.21337529332032        0.99191877390717        0.97370317927076
H           -2.67889723913175        2.45934539008165        0.11424336563419
H           -2.68595126824403        0.89860795992908       -0.73816643900672
S            0.17022942101356        2.73994817015457        0.85441746244801
H           -0.19375366078039        0.77392100189634       -0.47728018725520
H           -0.66327593177675        2.25164407919863       -1.34511427430014

          :  Hamiltonian                  GFN2-xTB          :
         :: gradient norm              0.000481906688 Eh/a0 ::
         :: HOMO-LUMO gap              4.243481242279 eV    ::
         :: SCC energy               -10.371135565193 Eh    ::
         :: -> dispersion             -0.004099794802 Eh    ::
         :: repulsion energy           0.102623160411 Eh    ::

    * Orbital Energies and Occupations

         #    Occupation            Energy/Eh            Energy/eV
      -------------------------------------------------------------
         1        2.0000           -0.4441005             -12.0846
         2        2.0000           -0.4346959             -11.8287
         3        2.0000           -0.3884827             -10.5712
         4        2.0000           -0.3365898              -9.1591
         5        2.0000           -0.3309581              -9.0058
         6        2.0000           -0.2921585              -7.9500
         7        2.0000           -0.2756904              -7.5019
         8        2.0000           -0.2231695              -6.0728
         9        2.0000           -0.0926929              -2.5223
        10        2.0000           -0.0905886              -2.4650 (HOMO)
        11                          0.0653565               1.7784 (LUMO)
        12                          0.2213703               6.0238
        13                          0.2395791               6.5193
        14                          0.2590063               7.0479
        15                          0.2619816               7.1289
        16                          0.3025571               8.2330
        17                          0.3217949               8.7565
        18                          0.3220888               8.7645
        19                          0.3630704               9.8796
        20                          0.4007003              10.9036
        21                          0.4512614              12.2794
        22                          0.5566028              15.1459
      -------------------------------------------------------------
                  HL-Gap            0.1559451 Eh            4.2435 eV

     #   Z          covCN         q      C6AA      α(0)
     1   6 C        3.779    -0.064    21.744     6.643
     2   6 C        3.791     0.077    19.308     6.258
     3   1 H        0.925     0.011     2.880     2.654
     4   1 H        0.925     0.011     2.878     2.653
     5   1 H        0.924    -0.032     3.679     3.000
     6  16 S        1.001    -0.913   183.332    22.901
     7   1 H        0.923    -0.045     3.968     3.115
     8   1 H        0.923    -0.045     3.968     3.115

Wiberg/Mayer (AO) data.
largest (>0.10) Wiberg bond orders for each atom

     #   Z sym  total        # sym  WBO       # sym  WBO       # sym  WBO
 ---------------------------------------------------------------------------
     1   6 C    3.994 --     2 C    1.013     3 H    0.990     4 H    0.990
                             5 H    0.984
     2   6 C    3.984 --     6 S    1.014     1 C    1.013     7 H    0.979
                             8 H    0.979
     3   1 H    1.000 --     1 C    0.990
     4   1 H    1.000 --     1 C    0.990
     5   1 H    0.999 --     1 C    0.984
     6  16 S    1.066 --     2 C    1.014
     7   1 H    0.998 --     2 C    0.979
     8   1 H    0.998 --     2 C    0.979
 ---------------------------------------------------------------------------

molecular dipole:
                 x           y           z       tot (Debye)
 q only:       -0.000      -4.896      -1.309
   full:       -0.382      -5.284      -1.763      14.192

 projected vibrational frequencies (cm⁻¹)
eigval :       -0.00    -0.00    -0.00     0.00     0.00     0.00
eigval :      216.06   295.67   683.62   785.10  1003.83  1008.96
eigval :     1048.71  1242.28  1263.77  1390.18  1487.39  1500.09
eigval :     1515.71  2801.02  2841.81  2893.21  2998.95  3008.61

   temp. (K)  partition function   enthalpy   heat capacity  entropy
                                   cal/mol     cal/K/mol   cal/K/mol   J/K/mol
 298.15  VIB   2.23                  825.690      6.780      4.359
         ROT  0.292E+05              888.752      2.981     23.416
         INT  0.650E+05             1714.442      9.761     27.775
         TR   0.462E+27             1481.254      4.968     38.233
         TOT                        3195.6961    14.7293    66.0084   276.1792

       T/K    H(0)-H(T)+PV         H(T)/Eh          T*S/Eh         G(T)/Eh
   ------------------------------------------------------------------------
    298.15    0.509267E-02    0.688471E-01    0.313627E-01    0.374844E-01
   ------------------------------------------------------------------------

         :::::::::::::::::::::::::::::::::::::::::::::::::::::
         ::                  THERMODYNAMIC                  ::
         :::::::::::::::::::::::::::::::::::::::::::::::::::::
         :: total free energy         -10.231028017991 Eh   ::
         ::.................................................::
         :: total energy              -10.268512404783 Eh   ::
         :: zero point energy           0.063754453009 Eh   ::
         :: G(RRHO) w/o ZPVE           -0.026270066217 Eh   ::
         :: G(RRHO) contrib.            0.037484386792 Eh   ::
         :::::::::::::::::::::::::::::::::::::::::::::::::::::

           -------------------------------------------------
          | TOTAL ENERGY              -10.268512404783 Eh   |
          | TOTAL ENTHALPY            -10.199665285824 Eh   |
          | TOTAL FREE ENERGY         -10.231028017991 Eh   |
          | GRADIENT NORM               0.000482044869 Eh/α |
          | HOMO-LUMO GAP               4.243482632778 eV   |
           -------------------------------------------------

 * finished run on 2025/10/18 at 18:27:36.615
normal termination of xtb
