   * xtb version 6.7.1 (edcfbbe) compiled by 'albert@albert-system' on 2024-07-22

   ID    Z sym.   atoms
    1    6 C      1, 2
    2    1 H      3-5, 7, 8, 10, 11
    3   16 S      6
    4    8 O      9

          program call               : xtb tb_lite_results_shiftn0p05_gp363_b0_rot90_complex.xyz --ohess --chrg -1 --alpb water
      * Solvation model:               ALPB
        Solvent                        water
        Solvent mass                       1.8000E+01 g/mol
          :  Hamiltonian                  GFN2-xTB          :
 * total energy  :   -15.4550703 Eh     change       -0.1192646E-10 Eh
 * total energy  :   -15.4559296 Eh     change       -0.8592729E-03 Eh
 * total energy  :   -15.4560849 Eh     change       -0.1552849E-03 Eh
 * total energy  :   -15.4561243 Eh     change       -0.3944100E-04 Eh
 * total energy  :   -15.4561555 Eh     change       -0.3116586E-04 Eh
 * total energy  :   -15.4561772 Eh     change       -0.2167543E-04 Eh
 * total energy  :   -15.4561993 Eh     change       -0.2211863E-04 Eh
 * total energy  :   -15.4562183 Eh     change       -0.1896175E-04 Eh
 * total energy  :   -15.4562306 Eh     change       -0.1235774E-04 Eh
 * total energy  :   -15.4562360 Eh     change       -0.5406885E-05 Eh
 * total energy  :   -15.4562381 Eh     change       -0.2046992E-05 Eh
   *** GEOMETRY OPTIMIZATION CONVERGED AFTER 11 ITERATIONS ***

 final structure:
================
11
 xtb: 6.7.1 (edcfbbe)
C           -2.18629235154548        1.50219692776426       -0.01879866035251
C           -0.74549933671516        1.76250824456662       -0.43015974556708
H           -2.20264394195026        0.88678725287528        0.87924436913336
H           -2.67775893982506        2.44793956525917        0.20436298701792
H           -2.72285216526564        0.99297315043834       -0.81827535829320
S            0.20978880425815        2.62271452907933        0.85324609027399
H           -0.22970150358400        0.81805234543405       -0.64538890492690
H           -0.70701752593110        2.38626864279632       -1.33301635047370
O           -0.43947265002917        0.57142197534096        3.06147388666594
H           -0.22144060679402        1.23793761507693        2.36593602434070
H            0.11000698612702        0.81620359710618        3.81387683264257

          :  Hamiltonian                  GFN2-xTB          :
         :: gradient norm              0.000302713529 Eh/a0 ::
         :: HOMO-LUMO gap              4.373556947105 eV    ::
         :: SCC energy               -15.590467678653 Eh    ::
         :: -> dispersion             -0.005707211749 Eh    ::
         :: -> Gsolv                  -0.101527668811 Eh    ::
         :: repulsion energy           0.134229614815 Eh    ::

    * Orbital Energies and Occupations

         #    Occupation            Energy/Eh            Energy/eV
      -------------------------------------------------------------
         1        2.0000           -0.6547933             -17.8178
         2        2.0000           -0.6362007             -17.3119
         3        2.0000           -0.6003029             -16.3351
         4        2.0000           -0.5580183             -15.1844
         5        2.0000           -0.5318858             -14.4733
         6        2.0000           -0.4986497             -13.5689
         7        2.0000           -0.4861107             -13.2277
         8        2.0000           -0.4833403             -13.1524
         9        2.0000           -0.4580404             -12.4639
        10        2.0000           -0.4404030             -11.9840
        11        2.0000           -0.4195406             -11.4163
        12        2.0000           -0.4057246             -11.0403
        13        2.0000           -0.2957830              -8.0487
        14        2.0000           -0.2910304              -7.9193 (HOMO)
        15                         -0.1303051              -3.5458 (LUMO)
        16                          0.0234399               0.6378
        17                          0.0319108               0.8683
        18                          0.0445087               1.2111
        19                          0.0562934               1.5318
        20                          0.1320654               3.5937
        21                          0.1455477               3.9606
        22                          0.1653574               4.4996
        23                          0.1843730               5.0170
        24                          0.2013924               5.4802
        25                          0.2464516               6.7063
       ...                                ...                  ...
        28                          0.4050095              11.0209
      -------------------------------------------------------------
                  HL-Gap            0.1607253 Eh            4.3736 eV

     #   Z          covCN         q      C6AA      α(0)
     1   6 C        3.777    -0.081    22.073     6.694
     2   6 C        3.792     0.062    19.550     6.297
     3   1 H        0.925     0.032     2.553     2.499
     4   1 H        0.925     0.025     2.663     2.552
     5   1 H        0.925     0.021     2.723     2.580
     6  16 S        1.028    -0.936   184.689    22.985
     7   1 H        0.924    -0.032     3.669     2.996
     8   1 H        0.924    -0.034     3.724     3.018
     9   8 O        1.607    -0.683    27.272     7.048
    10   1 H        0.832     0.278     0.787     1.391
    11   1 H        0.805     0.349     0.591     1.207

Wiberg/Mayer (AO) data.
largest (>0.10) Wiberg bond orders for each atom

     #   Z sym  total        # sym  WBO       # sym  WBO       # sym  WBO
 ---------------------------------------------------------------------------
     1   6 C    3.999 --     2 C    1.021     4 H    0.989     3 H    0.988
                             5 H    0.984
     2   6 C    3.991 --     1 C    1.021     6 S    1.010     7 H    0.980
                             8 H    0.980
     3   1 H    0.999 --     1 C    0.988
     4   1 H    0.999 --     1 C    0.989
     5   1 H    1.000 --     1 C    0.984
     6  16 S    1.164 --     2 C    1.010
     7   1 H    0.999 --     2 C    0.980
     8   1 H    0.999 --     2 C    0.980
     9   8 O    1.768 --    11 H    0.877    10 H    0.853
    10   1 H    0.923 --     9 O    0.853
    11   1 H    0.878 --     9 O    0.877
 ---------------------------------------------------------------------------

molecular dipole:
                 x           y           z       tot (Debye)
 q only:        0.093      -4.210      -1.598
   full:       -0.040      -4.279      -2.078      12.091

 projected vibrational frequencies (cm⁻¹)
eigval :       -0.00    -0.00    -0.00    -0.00     0.00     0.00
eigval :      -22.65    48.63    69.79   188.20   234.61   311.52
eigval :      422.66   610.23   689.48   791.91  1020.33  1029.61
eigval :     1065.43  1242.77  1264.91  1392.57  1479.25  1484.10
eigval :     1503.99  1518.69  2842.60  2880.71  2960.14  2985.48
eigval :     3011.93  3024.25  3596.65

   temp. (K)  partition function   enthalpy   heat capacity  entropy
                                   cal/mol     cal/K/mol   cal/K/mol   J/K/mol
 298.15  VIB   70.4                 2457.356     14.229     15.812
         ROT  0.142E+06              888.752      2.981     26.555
         INT  0.999E+07             3346.109     17.210     42.368
         TR   0.681E+27             1481.254      4.968     39.003
         TOT                        4827.3627    22.1783    81.3705   340.4542

       T/K    H(0)-H(T)+PV         H(T)/Eh          T*S/Eh         G(T)/Eh
   ------------------------------------------------------------------------
    298.15    0.769289E-02    0.935126E-01    0.386618E-01    0.548508E-01
   ------------------------------------------------------------------------

         :::::::::::::::::::::::::::::::::::::::::::::::::::::
         ::                  THERMODYNAMIC                  ::
         :::::::::::::::::::::::::::::::::::::::::::::::::::::
         :: total free energy         -15.401387258854 Eh   ::
         ::.................................................::
         :: total energy              -15.456238063483 Eh   ::
         :: zero point energy           0.085819670226 Eh   ::
         :: G(RRHO) w/o ZPVE           -0.030968865596 Eh   ::
         :: G(RRHO) contrib.            0.054850804629 Eh   ::
         :::::::::::::::::::::::::::::::::::::::::::::::::::::

           -------------------------------------------------
          | TOTAL ENERGY              -15.456238063483 Eh   |
          | TOTAL ENTHALPY            -15.362725501156 Eh   |
          | TOTAL FREE ENERGY         -15.401387258854 Eh   |
          | GRADIENT NORM               0.000302739140 Eh/α |
          | HOMO-LUMO GAP               4.373557793430 eV   |
           -------------------------------------------------

 * finished run on 2025/10/18 at 18:27:37.654
normal termination of xtb
