   * xtb version 6.7.1 (edcfbbe) compiled by 'albert@albert-system' on 2024-07-22

   ID    Z sym.   atoms
    1    6 C      1, 2
    2    1 H      3-5, 7, 8, 10, 11
    3   16 S      6
    4    8 O      9

          program call               : xtb tb_lite_results_shiftn0p15_gp363_b0_rot90_complex.xyz --ohess --chrg -1 --alpb water
      * Solvation model:               ALPB
        Solvent                        water
        Solvent mass                       1.8000E+01 g/mol
          :  Hamiltonian                  GFN2-xTB          :
 * total energy  :   -15.4544645 Eh     change       -0.8100187E-11 Eh
 * total energy  :   -15.4558723 Eh     change       -0.1407836E-02 Eh
 * total energy  :   -15.4560284 Eh     change       -0.1560890E-03 Eh
 * total energy  :   -15.4560980 Eh     change       -0.6965439E-04 Eh
 * total energy  :   -15.4561257 Eh     change       -0.2763093E-04 Eh
 * total energy  :   -15.4561678 Eh     change       -0.4209283E-04 Eh
 * total energy  :   -15.4561886 Eh     change       -0.2088095E-04 Eh
 * total energy  :   -15.4562085 Eh     change       -0.1986815E-04 Eh
 * total energy  :   -15.4562203 Eh     change       -0.1183682E-04 Eh
 * total energy  :   -15.4562245 Eh     change       -0.4195265E-05 Eh
   *** GEOMETRY OPTIMIZATION CONVERGED AFTER 10 ITERATIONS ***

 final structure:
================
11
 xtb: 6.7.1 (edcfbbe)
C           -2.18707541920718        1.51107684121545       -0.02649737783818
C           -0.74876014314737        1.76370876863433       -0.45132591556983
H           -2.19782049770700        0.92201235182390        0.88933468099558
H           -2.68144998793310        2.46130391698184        0.17065676110380
H           -2.72457904615124        0.97643071177579       -0.80868306329113
S            0.21120827556309        2.65524679607822        0.80716846195771
H           -0.23231649412884        0.81525271009066       -0.64672915029520
H           -0.71559160595155        2.36636910531477       -1.36864060377838
O           -0.41964518111150        0.62800839341439        3.04143091785859
H           -0.20632012538279        1.29047776071157        2.33970819057339
H            0.15425418148560        0.86224280420674        3.77895195423452

          :  Hamiltonian                  GFN2-xTB          :
         :: gradient norm              0.000530104958 Eh/a0 ::
         :: HOMO-LUMO gap              4.373450070241 eV    ::
         :: SCC energy               -15.590277936695 Eh    ::
         :: -> dispersion             -0.005714208983 Eh    ::
         :: -> Gsolv                  -0.101525350538 Eh    ::
         :: repulsion energy           0.134053401728 Eh    ::

    * Orbital Energies and Occupations

         #    Occupation            Energy/Eh            Energy/eV
      -------------------------------------------------------------
         1        2.0000           -0.6548140             -17.8184
         2        2.0000           -0.6361959             -17.3118
         3        2.0000           -0.6002241             -16.3329
         4        2.0000           -0.5579496             -15.1826
         5        2.0000           -0.5318941             -14.4736
         6        2.0000           -0.4985547             -13.5664
         7        2.0000           -0.4861938             -13.2300
         8        2.0000           -0.4832471             -13.1498
         9        2.0000           -0.4579986             -12.4628
        10        2.0000           -0.4403455             -11.9824
        11        2.0000           -0.4195723             -11.4171
        12        2.0000           -0.4056702             -11.0388
        13        2.0000           -0.2958064              -8.0493
        14        2.0000           -0.2910517              -7.9199 (HOMO)
        15                         -0.1303303              -3.5465 (LUMO)
        16                          0.0232083               0.6315
        17                          0.0320066               0.8709
        18                          0.0445335               1.2118
        19                          0.0563028               1.5321
        20                          0.1318096               3.5867
        21                          0.1450624               3.9473
        22                          0.1652004               4.4953
        23                          0.1844882               5.0202
        24                          0.2015422               5.4842
        25                          0.2463098               6.7024
       ...                                ...                  ...
        28                          0.4047206              11.0130
      -------------------------------------------------------------
                  HL-Gap            0.1607213 Eh            4.3735 eV

     #   Z          covCN         q      C6AA      α(0)
     1   6 C        3.777    -0.081    22.072     6.694
     2   6 C        3.792     0.062    19.551     6.297
     3   1 H        0.925     0.033     2.550     2.497
     4   1 H        0.925     0.025     2.666     2.553
     5   1 H        0.925     0.021     2.724     2.581
     6  16 S        1.029    -0.936   184.678    22.984
     7   1 H        0.924    -0.031     3.665     2.994
     8   1 H        0.924    -0.034     3.723     3.017
     9   8 O        1.607    -0.683    27.275     7.049
    10   1 H        0.833     0.278     0.787     1.391
    11   1 H        0.805     0.349     0.591     1.208

Wiberg/Mayer (AO) data.
largest (>0.10) Wiberg bond orders for each atom

     #   Z sym  total        # sym  WBO       # sym  WBO       # sym  WBO
 ---------------------------------------------------------------------------
     1   6 C    3.999 --     2 C    1.021     4 H    0.990     3 H    0.987
                             5 H    0.984
     2   6 C    3.991 --     1 C    1.021     6 S    1.010     7 H    0.980
                             8 H    0.980
     3   1 H    0.999 --     1 C    0.987
     4   1 H    0.999 --     1 C    0.990
     5   1 H    1.000 --     1 C    0.984
     6  16 S    1.165 --     2 C    1.010
     7   1 H    0.999 --     2 C    0.980
     8   1 H    0.999 --     2 C    0.980
     9   8 O    1.768 --    11 H    0.877    10 H    0.853
    10   1 H    0.923 --     9 O    0.853
    11   1 H    0.878 --     9 O    0.877
 ---------------------------------------------------------------------------

molecular dipole:
                 x           y           z       tot (Debye)
 q only:        0.103      -4.280      -1.529
   full:       -0.031      -4.362      -2.004      12.201

 projected vibrational frequencies (cm⁻¹)
eigval :       -0.00    -0.00     0.00     0.00     0.00     0.00
eigval :      -81.41    51.07    61.74   183.89   235.76   311.82
eigval :      420.72   615.56   689.02   792.16  1020.61  1029.68
eigval :     1065.33  1242.76  1264.66  1392.88  1479.09  1484.18
eigval :     1504.06  1517.96  2842.32  2880.09  2949.83  2984.43
eigval :     3009.87  3022.81  3591.97

   temp. (K)  partition function   enthalpy   heat capacity  entropy
                                   cal/mol     cal/K/mol   cal/K/mol   J/K/mol
 298.15  VIB   75.7                 2466.957     14.186     15.951
         ROT  0.142E+06              888.752      2.981     26.550
         INT  0.107E+08             3355.710     17.167     42.501
         TR   0.681E+27             1481.254      4.968     39.003
         TOT                        4836.9635    22.1351    81.5040   341.0127

       T/K    H(0)-H(T)+PV         H(T)/Eh          T*S/Eh         G(T)/Eh
   ------------------------------------------------------------------------
    298.15    0.770819E-02    0.934682E-01    0.387252E-01    0.547430E-01
   ------------------------------------------------------------------------

         :::::::::::::::::::::::::::::::::::::::::::::::::::::
         ::                  THERMODYNAMIC                  ::
         :::::::::::::::::::::::::::::::::::::::::::::::::::::
         :: total free energy         -15.401481534450 Eh   ::
         ::.................................................::
         :: total energy              -15.456224534590 Eh   ::
         :: zero point energy           0.085759989327 Eh   ::
         :: G(RRHO) w/o ZPVE           -0.031016989187 Eh   ::
         :: G(RRHO) contrib.            0.054743000140 Eh   ::
         :::::::::::::::::::::::::::::::::::::::::::::::::::::

           -------------------------------------------------
          | TOTAL ENERGY              -15.456224534590 Eh   |
          | TOTAL ENTHALPY            -15.362756353342 Eh   |
          | TOTAL FREE ENERGY         -15.401481534450 Eh   |
          | GRADIENT NORM               0.000530118074 Eh/α |
          | HOMO-LUMO GAP               4.373450411745 eV   |
           -------------------------------------------------

 * finished run on 2025/10/18 at 18:27:35.812
normal termination of xtb
