   * xtb version 6.7.1 (edcfbbe) compiled by 'albert@albert-system' on 2024-07-22

   ID    Z sym.   atoms
    1    6 C      1, 2
    2    1 H      3-5, 7, 8, 10, 11
    3   16 S      6
    4    8 O      9

          program call               : xtb tb_lite_results_shiftn0p1_gp363_b0_rot90_complex.xyz --ohess --chrg -1 --alpb water
      * Solvation model:               ALPB
        Solvent                        water
        Solvent mass                       1.8000E+01 g/mol
          :  Hamiltonian                  GFN2-xTB          :
 * total energy  :   -15.4548690 Eh     change       -0.1019806E-10 Eh
 * total energy  :   -15.4559099 Eh     change       -0.1040849E-02 Eh
 * total energy  :   -15.4560598 Eh     change       -0.1499682E-03 Eh
 * total energy  :   -15.4561100 Eh     change       -0.5019625E-04 Eh
 * total energy  :   -15.4561447 Eh     change       -0.3470500E-04 Eh
 * total energy  :   -15.4561721 Eh     change       -0.2739084E-04 Eh
 * total energy  :   -15.4561964 Eh     change       -0.2431115E-04 Eh
 * total energy  :   -15.4562163 Eh     change       -0.1983287E-04 Eh
 * total energy  :   -15.4562274 Eh     change       -0.1114160E-04 Eh
 * total energy  :   -15.4562309 Eh     change       -0.3529378E-05 Eh
   *** GEOMETRY OPTIMIZATION CONVERGED AFTER 10 ITERATIONS ***

 final structure:
================
11
 xtb: 6.7.1 (edcfbbe)
C           -2.18694131849891        1.50760342442047       -0.02243105824620
C           -0.74687479217162        1.76183463618782       -0.44028826870057
H           -2.20167903564682        0.90816935408512        0.88652931702784
H           -2.67959990833091        2.45664485750846        0.18428088090483
H           -2.72359967408127        0.98332499829827       -0.81216571641513
S            0.21088239268133        2.63975997298726        0.82914048812541
H           -0.23152067522327        0.81439118629893       -0.64330817815817
H           -0.71003620279850        2.37306795421559       -1.35177714566834
O           -0.42954061627777        0.59987885021687        3.05096171196066
H           -0.21427791932758        1.26422695937932        2.35236220253264
H            0.13269811221206        0.83966480939453        3.79563377984295

          :  Hamiltonian                  GFN2-xTB          :
         :: gradient norm              0.000371780592 Eh/a0 ::
         :: HOMO-LUMO gap              4.374044284421 eV    ::
         :: SCC energy               -15.590375127119 Eh    ::
         :: -> dispersion             -0.005711268227 Eh    ::
         :: -> Gsolv                  -0.101530992534 Eh    ::
         :: repulsion energy           0.134144185345 Eh    ::

    * Orbital Energies and Occupations

         #    Occupation            Energy/Eh            Energy/eV
      -------------------------------------------------------------
         1        2.0000           -0.6548552             -17.8195
         2        2.0000           -0.6361915             -17.3117
         3        2.0000           -0.6002563             -16.3338
         4        2.0000           -0.5579801             -15.1834
         5        2.0000           -0.5319352             -14.4747
         6        2.0000           -0.4985974             -13.5675
         7        2.0000           -0.4862145             -13.2306
         8        2.0000           -0.4832864             -13.1509
         9        2.0000           -0.4580254             -12.4635
        10        2.0000           -0.4403797             -11.9833
        11        2.0000           -0.4196107             -11.4182
        12        2.0000           -0.4056942             -11.0395
        13        2.0000           -0.2957656              -8.0482
        14        2.0000           -0.2910255              -7.9192 (HOMO)
        15                         -0.1302824              -3.5452 (LUMO)
        16                          0.0233879               0.6364
        17                          0.0319719               0.8700
        18                          0.0445401               1.2120
        19                          0.0563156               1.5324
        20                          0.1318953               3.5891
        21                          0.1452209               3.9517
        22                          0.1652049               4.4955
        23                          0.1843835               5.0173
        24                          0.2014886               5.4828
        25                          0.2463197               6.7027
       ...                                ...                  ...
        28                          0.4048871              11.0175
      -------------------------------------------------------------
                  HL-Gap            0.1607432 Eh            4.3740 eV

     #   Z          covCN         q      C6AA      α(0)
     1   6 C        3.777    -0.081    22.072     6.694
     2   6 C        3.792     0.062    19.550     6.297
     3   1 H        0.925     0.032     2.552     2.498
     4   1 H        0.925     0.025     2.665     2.553
     5   1 H        0.925     0.021     2.724     2.581
     6  16 S        1.028    -0.936   184.693    22.985
     7   1 H        0.924    -0.031     3.667     2.995
     8   1 H        0.924    -0.034     3.724     3.018
     9   8 O        1.607    -0.683    27.270     7.048
    10   1 H        0.832     0.278     0.787     1.391
    11   1 H        0.805     0.349     0.591     1.207

Wiberg/Mayer (AO) data.
largest (>0.10) Wiberg bond orders for each atom

     #   Z sym  total        # sym  WBO       # sym  WBO       # sym  WBO
 ---------------------------------------------------------------------------
     1   6 C    3.999 --     2 C    1.021     4 H    0.990     3 H    0.988
                             5 H    0.984
     2   6 C    3.991 --     1 C    1.021     6 S    1.010     7 H    0.980
                             8 H    0.980
     3   1 H    0.999 --     1 C    0.988
     4   1 H    0.999 --     1 C    0.990
     5   1 H    1.000 --     1 C    0.984
     6  16 S    1.164 --     2 C    1.010
     7   1 H    0.999 --     2 C    0.980
     8   1 H    0.999 --     2 C    0.980
     9   8 O    1.768 --    11 H    0.877    10 H    0.853
    10   1 H    0.923 --     9 O    0.853
    11   1 H    0.878 --     9 O    0.877
 ---------------------------------------------------------------------------

molecular dipole:
                 x           y           z       tot (Debye)
 q only:        0.097      -4.247      -1.561
   full:       -0.036      -4.322      -2.039      12.147

 projected vibrational frequencies (cm⁻¹)
eigval :       -0.00    -0.00     0.00     0.00     0.00     0.00
eigval :      -12.08    50.26    67.38   186.66   235.80   311.75
eigval :      421.73   611.49   689.53   792.26  1020.59  1029.79
eigval :     1065.31  1242.83  1264.96  1392.80  1479.29  1484.25
eigval :     1504.07  1518.63  2842.19  2880.24  2958.83  2984.61
eigval :     3010.30  3023.15  3594.52

   temp. (K)  partition function   enthalpy   heat capacity  entropy
                                   cal/mol     cal/K/mol   cal/K/mol   J/K/mol
 298.15  VIB  0.125E+04             3033.998     15.233     20.806
         ROT  0.142E+06              888.752      2.981     26.553
         INT  0.177E+09             3922.750     18.214     47.359
         TR   0.681E+27             1481.254      4.968     39.003
         TOT                        5404.0044    23.1825    86.3618   361.3379

       T/K    H(0)-H(T)+PV         H(T)/Eh          T*S/Eh         G(T)/Eh
   ------------------------------------------------------------------------
    298.15    0.861183E-02    0.944425E-01    0.410333E-01    0.534092E-01
   ------------------------------------------------------------------------

         :::::::::::::::::::::::::::::::::::::::::::::::::::::
         ::                  THERMODYNAMIC                  ::
         :::::::::::::::::::::::::::::::::::::::::::::::::::::
         :: total free energy         -15.402821748971 Eh   ::
         ::.................................................::
         :: total energy              -15.456230941358 Eh   ::
         :: zero point energy           0.085830656878 Eh   ::
         :: G(RRHO) w/o ZPVE           -0.032421464492 Eh   ::
         :: G(RRHO) contrib.            0.053409192386 Eh   ::
         :::::::::::::::::::::::::::::::::::::::::::::::::::::

           -------------------------------------------------
          | TOTAL ENERGY              -15.456230941358 Eh   |
          | TOTAL ENTHALPY            -15.361788455330 Eh   |
          | TOTAL FREE ENERGY         -15.402821748971 Eh   |
          | GRADIENT NORM               0.000371767021 Eh/α |
          | HOMO-LUMO GAP               4.374044589759 eV   |
           -------------------------------------------------

 * finished run on 2025/10/18 at 18:27:27.201
normal termination of xtb
