   * xtb version 6.7.1 (edcfbbe) compiled by 'albert@albert-system' on 2024-07-22

   ID    Z sym.   atoms
    1    8 O      1
    2    1 H      2, 3

          program call               : xtb tb_lite_results_shiftn0p15_gp363_b0_rot90_solvent.xyz --ohess --chrg 0
          :  Hamiltonian                  GFN2-xTB          :
 * total energy  :    -5.0703683 Eh     change       -0.1723066E-12 Eh
 * total energy  :    -5.0705318 Eh     change       -0.1635457E-03 Eh
 * total energy  :    -5.0705427 Eh     change       -0.1087247E-04 Eh
 * total energy  :    -5.0705441 Eh     change       -0.1363741E-05 Eh
   *** GEOMETRY OPTIMIZATION CONVERGED AFTER 4 ITERATIONS ***

 final structure:
================
3
 xtb: 6.7.1 (edcfbbe)
O            0.00786663674377        0.00908745414501       -0.00000000000000
H            0.96613479773193       -0.01389221111511       -0.00000000000000
H           -0.25460143077786        0.93180476148303        0.00000000000000

          :  Hamiltonian                  GFN2-xTB          :
         :: gradient norm              0.000881994751 Eh/a0 ::
         :: HOMO-LUMO gap             14.400467576772 eV    ::
         :: SCC energy                -5.105002077719 Eh    ::
         :: -> dispersion             -0.000141076346 Eh    ::
         :: repulsion energy           0.034458022766 Eh    ::

    * Orbital Energies and Occupations

         #    Occupation            Energy/Eh            Energy/eV
      -------------------------------------------------------------
         1        2.0000           -0.6801118             -18.5068
         2        2.0000           -0.5683502             -15.4656
         3        2.0000           -0.5108401             -13.9007
         4        2.0000           -0.4463898             -12.1469 (HOMO)
         5                          0.0828176               2.2536 (LUMO)
         6                          0.2521550               6.8615
      -------------------------------------------------------------
                  HL-Gap            0.5292075 Eh           14.4005 eV

     #   Z          covCN         q      C6AA      α(0)
     1   8 O        1.611    -0.565    24.359     6.661
     2   1 H        0.806     0.282     0.776     1.384
     3   1 H        0.805     0.282     0.776     1.384

Wiberg/Mayer (AO) data.
largest (>0.10) Wiberg bond orders for each atom

     #   Z sym  total        # sym  WBO       # sym  WBO       # sym  WBO
 ---------------------------------------------------------------------------
     1   8 O    1.840 --     3 H    0.920     2 H    0.920
     2   1 H    0.920 --     1 O    0.920
     3   1 H    0.920 --     1 O    0.920
 ---------------------------------------------------------------------------

molecular dipole:
                 x           y           z       tot (Debye)
 q only:        0.371       0.480      -0.000
   full:        0.534       0.690      -0.000       2.216

 projected vibrational frequencies (cm⁻¹)
eigval :       -0.00    -0.00    -0.00    -0.00     0.00     0.00
eigval :     1538.59  3644.18  3657.97

   temp. (K)  partition function   enthalpy   heat capacity  entropy
                                   cal/mol     cal/K/mol   cal/K/mol   J/K/mol
 298.15  VIB   1.00                    2.625      0.065      0.010
         ROT   42.5                  888.752      2.981     10.433
         INT   42.5                  891.378      3.046     10.443
         TR   0.740E+26             1481.254      4.968     34.593
         TOT                        2372.6315     8.0145    45.0363   188.4319

       T/K    H(0)-H(T)+PV         H(T)/Eh          T*S/Eh         G(T)/Eh
   ------------------------------------------------------------------------
    298.15    0.378103E-02    0.239217E-01    0.213982E-01    0.252351E-02
   ------------------------------------------------------------------------

         :::::::::::::::::::::::::::::::::::::::::::::::::::::
         ::                  THERMODYNAMIC                  ::
         :::::::::::::::::::::::::::::::::::::::::::::::::::::
         :: total free energy          -5.068020545683 Eh   ::
         ::.................................................::
         :: total energy               -5.070544054954 Eh   ::
         :: zero point energy           0.020140680012 Eh   ::
         :: G(RRHO) w/o ZPVE           -0.017617170741 Eh   ::
         :: G(RRHO) contrib.            0.002523509271 Eh   ::
         :::::::::::::::::::::::::::::::::::::::::::::::::::::

           -------------------------------------------------
          | TOTAL ENERGY               -5.070544054954 Eh   |
          | TOTAL ENTHALPY             -5.046622345905 Eh   |
          | TOTAL FREE ENERGY          -5.068020545683 Eh   |
          | GRADIENT NORM               0.000881955371 Eh/α |
          | HOMO-LUMO GAP              14.400467720630 eV   |
           -------------------------------------------------

 * finished run on 2025/10/18 at 18:27:36.914
normal termination of xtb
