   * xtb version 6.7.1 (edcfbbe) compiled by 'albert@albert-system' on 2024-07-22

   ID    Z sym.   atoms
    1    6 C      1, 2, 4, 6, 8, 10, 12
    2    1 H      3, 5, 7, 9, 11, 16, 17
    3    8 O      13-15

          program call               : xtb tb_lite_results_original_gp812_b0_rot0_complex.xyz --ohess --chrg -1 --alpb water
      * Solvation model:               ALPB
        Solvent                        water
        Solvent mass                       1.8000E+01 g/mol
          :  Hamiltonian                  GFN2-xTB          :
 * total energy  :   -31.0772301 Eh     change       -0.1923119E-09 Eh
 * total energy  :   -31.0798211 Eh     change       -0.2591075E-02 Eh
 * total energy  :   -31.0803843 Eh     change       -0.5631440E-03 Eh
 * total energy  :   -31.0807656 Eh     change       -0.3812821E-03 Eh
 * total energy  :   -31.0809361 Eh     change       -0.1704800E-03 Eh
 * total energy  :   -31.0808813 Eh     change        0.5473409E-04 Eh
 * total energy  :   -31.0811536 Eh     change       -0.2722529E-03 Eh
 * total energy  :   -31.0812113 Eh     change       -0.5771224E-04 Eh
 * total energy  :   -31.0812837 Eh     change       -0.7241235E-04 Eh
 * total energy  :   -31.0813034 Eh     change       -0.1972228E-04 Eh
 * total energy  :   -31.0813244 Eh     change       -0.2096055E-04 Eh
 * total energy  :   -31.0813350 Eh     change       -0.1064101E-04 Eh
 * total energy  :   -31.0813397 Eh     change       -0.4728398E-05 Eh
 * total energy  :   -31.0813411 Eh     change       -0.1324764E-05 Eh
   *** GEOMETRY OPTIMIZATION CONVERGED AFTER 14 ITERATIONS ***

 final structure:
================
17
 xtb: 6.7.1 (edcfbbe)
C           -4.14312729456929       -1.97915124435244        1.96854057442941
C           -3.84680979671859       -2.44692858076524        0.70150665056679
H           -6.95015224074886       -3.73736919545954        2.58392266180173
C           -5.26413207851828       -2.44707736520272        2.64336924012382
H           -3.52323628289288       -1.24563987350895        2.46538828827643
C           -4.67152613442997       -3.38396764422656        0.09983754939667
H           -2.97323481461362       -2.07887680078727        0.18466840213163
C           -5.79064804728421       -3.85483353227350        0.76763248551408
H           -4.44219198392677       -3.74725513636034       -0.89043125670183
C           -6.08531010906960       -3.38922999582757        2.03604835045550
H           -6.43545485625215       -4.58462371020607        0.30133491969510
C           -5.58917568995123       -1.92537273021573        4.02571357574716
O           -4.88179232437807       -1.00566504096219        4.49194486578843
O           -6.56409469711102       -2.44970567952959        4.62803608173246
O           -6.93427636093678       -1.07680736229578        6.95460353584236
H           -6.86774163782808       -1.63713740815598        6.14799186229119
H           -6.22978961190007       -0.42901514112983        6.84859951973220

          :  Hamiltonian                  GFN2-xTB          :
         :: gradient norm              0.000848024827 Eh/a0 ::
         :: HOMO-LUMO gap              3.349667550982 eV    ::
         :: SCC energy               -31.474677334171 Eh    ::
         :: -> dispersion             -0.013665001345 Eh    ::
         :: -> Gsolv                  -0.113077447820 Eh    ::
         :: repulsion energy           0.393336259877 Eh    ::

    * Orbital Energies and Occupations

         #    Occupation            Energy/Eh            Energy/eV
      -------------------------------------------------------------
         1        2.0000           -0.6714898             -18.2722
       ...           ...                  ...                  ...
        15        2.0000           -0.4886170             -13.2959
        16        2.0000           -0.4826057             -13.1324
        17        2.0000           -0.4752929             -12.9334
        18        2.0000           -0.4732943             -12.8790
        19        2.0000           -0.4707726             -12.8104
        20        2.0000           -0.4335016             -11.7962
        21        2.0000           -0.4194811             -11.4147
        22        2.0000           -0.4179939             -11.3742
        23        2.0000           -0.4030058             -10.9663
        24        2.0000           -0.4000240             -10.8852
        25        2.0000           -0.3993413             -10.8666
        26        2.0000           -0.3823021             -10.4030
        27        2.0000           -0.3638671              -9.9013 (HOMO)
        28                         -0.2407691              -6.5517 (LUMO)
        29                         -0.2207707              -6.0075
        30                         -0.1562494              -4.2518
        31                         -0.0724261              -1.9708
        32                          0.1108067               3.0152
        33                          0.1313724               3.5748
        34                          0.1363264               3.7096
        35                          0.1679139               4.5692
        36                          0.1724980               4.6939
        37                          0.1994456               5.4272
        38                          0.2025892               5.5127
       ...                                ...                  ...
        47                          0.6895241              18.7629
      -------------------------------------------------------------
                  HL-Gap            0.1230980 Eh            3.3497 eV

     #   Z          covCN         q      C6AA      α(0)
     1   6 C        2.923    -0.026    28.663     8.780
     2   6 C        2.918    -0.037    28.926     8.820
     3   1 H        0.925     0.025     2.653     2.547
     4   6 C        2.970    -0.044    29.095     8.848
     5   1 H        0.925     0.027     2.634     2.538
     6   6 C        2.921    -0.035    28.883     8.813
     7   1 H        0.926     0.048     2.350     2.397
     8   6 C        2.919    -0.037    28.926     8.820
     9   1 H        0.926     0.056     2.250     2.346
    10   6 C        2.923    -0.026    28.652     8.778
    11   1 H        0.926     0.047     2.357     2.401
    12   6 C        2.693     0.358    20.932     7.488
    13   8 O        0.857    -0.649    27.350     7.012
    14   8 O        0.857    -0.657    27.557     7.038
    15   8 O        1.607    -0.683    27.267     7.048
    16   1 H        0.802     0.308     0.697     1.311
    17   1 H        0.805     0.327     0.645     1.261

Wiberg/Mayer (AO) data.
largest (>0.10) Wiberg bond orders for each atom

     #   Z sym  total        # sym  WBO       # sym  WBO       # sym  WBO
 ---------------------------------------------------------------------------
     1   6 C    3.991 --     2 C    1.449     4 C    1.404     5 H    0.968
                             8 C    0.109
     2   6 C    3.990 --     1 C    1.449     6 C    1.435     7 H    0.969
                            10 C    0.109
     3   1 H    0.999 --    10 C    0.968
     4   6 C    3.984 --    10 C    1.405     1 C    1.404    12 C    0.957
                             6 C    0.108
     5   1 H    0.999 --     1 C    0.968
     6   6 C    3.990 --     8 C    1.435     2 C    1.435     9 H    0.969
                             4 C    0.108
     7   1 H    0.997 --     2 C    0.969
     8   6 C    3.990 --    10 C    1.449     6 C    1.435    11 H    0.969
                             1 C    0.109
     9   1 H    0.996 --     6 C    0.969
    10   6 C    3.991 --     8 C    1.449     4 C    1.405     3 H    0.968
                             2 C    0.109
    11   1 H    0.997 --     8 C    0.969
    12   6 C    3.927 --    13 O    1.491    14 O    1.440     4 C    0.957
    13   8 O    1.793 --    12 C    1.491    14 O    0.210
    14   8 O    1.813 --    12 C    1.440    13 O    0.210
    15   8 O    1.766 --    17 H    0.891    16 H    0.843
    16   1 H    0.905 --    15 O    0.843
    17   1 H    0.893 --    15 O    0.891
 ---------------------------------------------------------------------------

molecular dipole:
                 x           y           z       tot (Debye)
 q only:       11.574       3.053     -10.024
   full:       11.702       3.069     -10.165      40.164

 projected vibrational frequencies (cm⁻¹)
eigval :       -0.00    -0.00    -0.00     0.00     0.00     0.00
eigval :       28.79    31.25    40.17   139.74   150.61   195.35
eigval :      228.35   363.41   379.74   395.46   400.71   517.87
eigval :      587.17   641.75   645.51   694.42   740.23   788.90
eigval :      800.64   880.06   906.71   925.28   931.10   982.13
eigval :     1075.91  1108.54  1158.33  1174.29  1190.82  1272.98
eigval :     1324.40  1337.59  1432.95  1460.99  1526.72  1589.06
eigval :     1595.76  1613.40  3065.89  3067.26  3075.71  3079.80
eigval :     3092.82  3116.35  3603.25

   temp. (K)  partition function   enthalpy   heat capacity  entropy
                                   cal/mol     cal/K/mol   cal/K/mol   J/K/mol
 298.15  VIB  0.923E+04             4855.488     28.422     30.224
         ROT  0.741E+06              888.752      2.981     29.839
         INT  0.684E+10             5744.240     31.403     60.064
         TR   0.159E+28             1481.254      4.968     40.684
         TOT                        7225.4942    36.3707   100.7475   421.5275

       T/K    H(0)-H(T)+PV         H(T)/Eh          T*S/Eh         G(T)/Eh
   ------------------------------------------------------------------------
    298.15    0.115146E-01    0.133073E+00    0.478684E-01    0.852051E-01
   ------------------------------------------------------------------------

         :::::::::::::::::::::::::::::::::::::::::::::::::::::
         ::                  THERMODYNAMIC                  ::
         :::::::::::::::::::::::::::::::::::::::::::::::::::::
         :: total free energy         -30.996135975506 Eh   ::
         ::.................................................::
         :: total energy              -31.081341072660 Eh   ::
         :: zero point energy           0.121558923834 Eh   ::
         :: G(RRHO) w/o ZPVE           -0.036353826679 Eh   ::
         :: G(RRHO) contrib.            0.085205097155 Eh   ::
         :::::::::::::::::::::::::::::::::::::::::::::::::::::

           -------------------------------------------------
          | TOTAL ENERGY              -31.081341072660 Eh   |
          | TOTAL ENTHALPY            -30.948267590894 Eh   |
          | TOTAL FREE ENERGY         -30.996135975506 Eh   |
          | GRADIENT NORM               0.000847351776 Eh/α |
          | HOMO-LUMO GAP               3.349666624507 eV   |
           -------------------------------------------------

 * finished run on 2025/10/18 at 03:46:53.021
normal termination of xtb
