   * xtb version 6.7.1 (edcfbbe) compiled by 'albert@albert-system' on 2024-07-22

   ID    Z sym.   atoms
    1    6 C      1, 2, 4, 6, 8, 10, 12
    2    1 H      3, 5, 7, 9, 11, 16, 17
    3    8 O      13-15

          program call               : xtb tb_lite_results_shiftn0p1_gp711_b0_rot180_complex.xyz --ohess --chrg -1 --alpb water
      * Solvation model:               ALPB
        Solvent                        water
        Solvent mass                       1.8000E+01 g/mol
          :  Hamiltonian                  GFN2-xTB          :
 * total energy  :   -31.0775397 Eh     change       -0.4497984E-09 Eh
 * total energy  :   -31.0807313 Eh     change       -0.3191648E-02 Eh
 * total energy  :   -31.0809588 Eh     change       -0.2274939E-03 Eh
 * total energy  :   -31.0809839 Eh     change       -0.2506906E-04 Eh
 * total energy  :   -31.0810526 Eh     change       -0.6867995E-04 Eh
 * total energy  :   -31.0810303 Eh     change        0.2227430E-04 Eh
 * total energy  :   -31.0811046 Eh     change       -0.7429264E-04 Eh
 * total energy  :   -31.0811295 Eh     change       -0.2491729E-04 Eh
 * total energy  :   -31.0811561 Eh     change       -0.2658621E-04 Eh
 * total energy  :   -31.0809372 Eh     change        0.2188656E-03 Eh
 * total energy  :   -31.0813133 Eh     change       -0.1166649E-04 Eh
 * total energy  :   -31.0813276 Eh     change       -0.1426842E-04 Eh
 * total energy  :   -31.0813433 Eh     change       -0.1567498E-04 Eh
 * total energy  :   -31.0813594 Eh     change       -0.1609234E-04 Eh
 * total energy  :   -31.0813722 Eh     change       -0.1280373E-04 Eh
 * total energy  :   -31.0813777 Eh     change       -0.5516575E-05 Eh
 * total energy  :   -31.0813762 Eh     change        0.1509640E-05 Eh
 * total energy  :   -31.0813815 Eh     change       -0.5291532E-05 Eh
 * total energy  :   -31.0813828 Eh     change       -0.1358298E-05 Eh
   *** GEOMETRY OPTIMIZATION CONVERGED AFTER 25 ITERATIONS ***

 final structure:
================
17
 xtb: 6.7.1 (edcfbbe)
C           -4.18945498536121       -1.93024886496322        1.94335662765211
C           -3.88261220185128       -2.42725127568195        0.68989509510202
H           -6.90512271672137       -3.79442049173543        2.64630143514993
C           -5.28147070500697       -2.42639648397119        2.64472980919468
H           -3.59896763555598       -1.15224414108347        2.40744782984460
C           -4.66682370246144       -3.42235894672550        0.12871985595509
H           -3.03185967861176       -2.03649208691490        0.15211863919638
C           -5.75712985991048       -3.92157096076682        0.82325095364469
H           -4.42828501180412       -3.80880509075854       -0.85046520674611
C           -6.06247922907205       -3.42605255880384        2.07751249381898
H           -6.37050239612290       -4.69662341488020        0.38883574956340
C           -5.62310336115237       -1.88093880159415        4.01416681381167
O           -4.92676026836203       -0.92277516813926        4.44488744502259
O           -6.56972288419224       -2.40540802620454        4.64044405969824
O           -5.94152076118111       -0.22565415267541        6.87802409066820
H           -5.50448383708717       -0.40414565552936        6.01373443061191
H           -6.63335051869836       -0.89450874011280        6.93115652753104

          :  Hamiltonian                  GFN2-xTB          :
         :: gradient norm              0.000561526348 Eh/a0 ::
         :: HOMO-LUMO gap              3.349199776745 eV    ::
         :: SCC energy               -31.474536640807 Eh    ::
         :: -> dispersion             -0.013670293633 Eh    ::
         :: -> Gsolv                  -0.112953408701 Eh    ::
         :: repulsion energy           0.393153797598 Eh    ::

    * Orbital Energies and Occupations

         #    Occupation            Energy/Eh            Energy/eV
      -------------------------------------------------------------
         1        2.0000           -0.6715323             -18.2733
       ...           ...                  ...                  ...
        15        2.0000           -0.4886813             -13.2977
        16        2.0000           -0.4825618             -13.1312
        17        2.0000           -0.4752809             -12.9331
        18        2.0000           -0.4733057             -12.8793
        19        2.0000           -0.4708120             -12.8114
        20        2.0000           -0.4334810             -11.7956
        21        2.0000           -0.4193359             -11.4107
        22        2.0000           -0.4179790             -11.3738
        23        2.0000           -0.4030198             -10.9667
        24        2.0000           -0.4000317             -10.8854
        25        2.0000           -0.3993986             -10.8682
        26        2.0000           -0.3824329             -10.4065
        27        2.0000           -0.3638977              -9.9022 (HOMO)
        28                         -0.2408170              -6.5530 (LUMO)
        29                         -0.2207558              -6.0071
        30                         -0.1562598              -4.2520
        31                         -0.0723635              -1.9691
        32                          0.1106451               3.0108
        33                          0.1314105               3.5759
        34                          0.1359843               3.7003
        35                          0.1678366               4.5671
        36                          0.1725114               4.6943
        37                          0.1994726               5.4279
        38                          0.2025826               5.5126
       ...                                ...                  ...
        47                          0.6897093              18.7679
      -------------------------------------------------------------
                  HL-Gap            0.1230807 Eh            3.3492 eV

     #   Z          covCN         q      C6AA      α(0)
     1   6 C        2.923    -0.026    28.652     8.778
     2   6 C        2.919    -0.037    28.927     8.820
     3   1 H        0.925     0.027     2.634     2.538
     4   6 C        2.970    -0.044    29.096     8.848
     5   1 H        0.925     0.025     2.652     2.547
     6   6 C        2.921    -0.035    28.883     8.813
     7   1 H        0.926     0.047     2.358     2.401
     8   6 C        2.918    -0.037    28.927     8.820
     9   1 H        0.926     0.056     2.250     2.345
    10   6 C        2.923    -0.026    28.663     8.780
    11   1 H        0.926     0.048     2.350     2.397
    12   6 C        2.693     0.357    20.932     7.488
    13   8 O        0.857    -0.657    27.555     7.038
    14   8 O        0.857    -0.649    27.342     7.011
    15   8 O        1.607    -0.683    27.263     7.047
    16   1 H        0.802     0.308     0.697     1.312
    17   1 H        0.805     0.327     0.646     1.262

Wiberg/Mayer (AO) data.
largest (>0.10) Wiberg bond orders for each atom

     #   Z sym  total        # sym  WBO       # sym  WBO       # sym  WBO
 ---------------------------------------------------------------------------
     1   6 C    3.991 --     2 C    1.449     4 C    1.405     5 H    0.968
                             8 C    0.109
     2   6 C    3.990 --     1 C    1.449     6 C    1.435     7 H    0.969
                            10 C    0.109
     3   1 H    0.999 --    10 C    0.968
     4   6 C    3.984 --     1 C    1.405    10 C    1.404    12 C    0.957
                             6 C    0.108
     5   1 H    0.999 --     1 C    0.968
     6   6 C    3.990 --     2 C    1.435     8 C    1.435     9 H    0.969
                             4 C    0.108
     7   1 H    0.997 --     2 C    0.969
     8   6 C    3.990 --    10 C    1.449     6 C    1.435    11 H    0.969
                             1 C    0.109
     9   1 H    0.996 --     6 C    0.969
    10   6 C    3.991 --     8 C    1.449     4 C    1.404     3 H    0.968
                             2 C    0.109
    11   1 H    0.997 --     8 C    0.969
    12   6 C    3.927 --    14 O    1.491    13 O    1.440     4 C    0.957
    13   8 O    1.814 --    12 C    1.440    14 O    0.210
    14   8 O    1.793 --    12 C    1.491    13 O    0.210
    15   8 O    1.766 --    17 H    0.891    16 H    0.843
    16   1 H    0.905 --    15 O    0.843
    17   1 H    0.893 --    15 O    0.891
 ---------------------------------------------------------------------------

molecular dipole:
                 x           y           z       tot (Debye)
 q only:       10.845       2.221      -9.912
   full:       10.802       2.083     -10.037      37.850

 projected vibrational frequencies (cm⁻¹)
eigval :       -0.00    -0.00    -0.00     0.00     0.00     0.00
eigval :       31.80    34.73    41.60   145.35   150.13   228.38
eigval :      238.84   363.27   383.50   399.24   400.78   517.23
eigval :      587.16   641.85   645.64   694.70   735.60   788.98
eigval :      800.47   880.79   906.88   925.82   931.73   982.08
eigval :     1075.92  1108.55  1158.17  1174.20  1190.84  1272.99
eigval :     1324.52  1336.77  1432.94  1461.03  1525.80  1589.08
eigval :     1595.90  1613.54  3065.77  3067.09  3076.24  3080.26
eigval :     3093.38  3110.50  3591.90

   temp. (K)  partition function   enthalpy   heat capacity  entropy
                                   cal/mol     cal/K/mol   cal/K/mol   J/K/mol
 298.15  VIB  0.640E+04             4794.126     28.472     29.703
         ROT  0.739E+06              888.752      2.981     29.834
         INT  0.473E+10             5682.878     31.453     59.537
         TR   0.159E+28             1481.254      4.968     40.684
         TOT                        7164.1321    36.4215   100.2207   419.3235

       T/K    H(0)-H(T)+PV         H(T)/Eh          T*S/Eh         G(T)/Eh
   ------------------------------------------------------------------------
    298.15    0.114168E-01    0.133075E+00    0.476181E-01    0.854573E-01
   ------------------------------------------------------------------------

         :::::::::::::::::::::::::::::::::::::::::::::::::::::
         ::                  THERMODYNAMIC                  ::
         :::::::::::::::::::::::::::::::::::::::::::::::::::::
         :: total free energy         -30.995925574104 Eh   ::
         ::.................................................::
         :: total energy              -31.081382843516 Eh   ::
         :: zero point energy           0.121658600624 Eh   ::
         :: G(RRHO) w/o ZPVE           -0.036201331212 Eh   ::
         :: G(RRHO) contrib.            0.085457269412 Eh   ::
         :::::::::::::::::::::::::::::::::::::::::::::::::::::

           -------------------------------------------------
          | TOTAL ENERGY              -31.081382843516 Eh   |
          | TOTAL ENTHALPY            -30.948307471604 Eh   |
          | TOTAL FREE ENERGY         -30.995925574104 Eh   |
          | GRADIENT NORM               0.000560860624 Eh/α |
          | HOMO-LUMO GAP               3.349196579551 eV   |
           -------------------------------------------------

 * finished run on 2025/10/18 at 03:46:40.573
normal termination of xtb
