   * xtb version 6.7.1 (edcfbbe) compiled by 'albert@albert-system' on 2024-07-22

   ID    Z sym.   atoms
    1    6 C      1, 2, 4, 6, 8, 10, 12
    2    1 H      3, 5, 7, 9, 11, 16, 17
    3    8 O      13-15

          program call               : xtb tb_lite_results_shiftn0p05_gp711_b0_rot180_complex.xyz --ohess --chrg -1 --alpb water
      * Solvation model:               ALPB
        Solvent                        water
        Solvent mass                       1.8000E+01 g/mol
          :  Hamiltonian                  GFN2-xTB          :
 * total energy  :   -31.0777087 Eh     change       -0.2307452E-09 Eh
 * total energy  :   -31.0806971 Eh     change       -0.2988442E-02 Eh
 * total energy  :   -31.0809364 Eh     change       -0.2393382E-03 Eh
 * total energy  :   -31.0809691 Eh     change       -0.3267717E-04 Eh
 * total energy  :   -31.0810508 Eh     change       -0.8167910E-04 Eh
 * total energy  :   -31.0810036 Eh     change        0.4717653E-04 Eh
 * total energy  :   -31.0811008 Eh     change       -0.9716108E-04 Eh
 * total energy  :   -31.0811224 Eh     change       -0.2164326E-04 Eh
 * total energy  :   -31.0811408 Eh     change       -0.1841115E-04 Eh
 * total energy  :   -31.0811582 Eh     change       -0.1741056E-04 Eh
 * total energy  :   -31.0812994 Eh     change       -0.1273049E-04 Eh
 * total energy  :   -31.0813147 Eh     change       -0.1525412E-04 Eh
 * total energy  :   -31.0813281 Eh     change       -0.1335133E-04 Eh
 * total energy  :   -31.0813427 Eh     change       -0.1464470E-04 Eh
 * total energy  :   -31.0813555 Eh     change       -0.1282543E-04 Eh
 * total energy  :   -31.0813657 Eh     change       -0.1013956E-04 Eh
 * total energy  :   -31.0813717 Eh     change       -0.6083236E-05 Eh
 * total energy  :   -31.0813707 Eh     change        0.1014635E-05 Eh
 * total energy  :   -31.0813748 Eh     change       -0.4020643E-05 Eh
   *** GEOMETRY OPTIMIZATION CONVERGED AFTER 24 ITERATIONS ***

 final structure:
================
17
 xtb: 6.7.1 (edcfbbe)
C           -4.19349489960852       -1.92787975536426        1.95219075233963
C           -3.88932584283096       -2.41825162903134        0.69554241761136
H           -6.90321333806109       -3.80071205054527        2.65442094531732
C           -5.28243887928513       -2.42943621212342        2.65451853544131
H           -3.60353340931064       -1.15068521076859        2.41821410382832
C           -4.67320874597575       -3.41218044175580        0.13196661722043
H           -3.04130605941756       -2.02301615693838        0.15676622651272
C           -5.76040049662541       -3.91690789881172        0.82739283839129
H           -4.43673971591233       -3.79345392002739       -0.84971175391436
C           -6.06310188423151       -3.42792189989221        2.08475836059787
H           -6.37310708057927       -4.69141694948172        0.39116967386350
C           -5.62094157291159       -1.89108166871591        4.02738884970148
O           -4.92406631756984       -0.93439117175227        4.46091854109792
O           -6.56697792974437       -2.41747314655708        4.65253032080134
O           -5.95035100836042       -0.20845133155648        6.88066570609944
H           -5.50968763451538       -0.39603191346163        6.02013088657608
H           -6.64110835918513       -0.87725008278522        6.93956912540793

          :  Hamiltonian                  GFN2-xTB          :
         :: gradient norm              0.000497502741 Eh/a0 ::
         :: HOMO-LUMO gap              3.348801749402 eV    ::
         :: SCC energy               -31.474688292443 Eh    ::
         :: -> dispersion             -0.013667269630 Eh    ::
         :: -> Gsolv                  -0.112984665598 Eh    ::
         :: repulsion energy           0.393313539700 Eh    ::

    * Orbital Energies and Occupations

         #    Occupation            Energy/Eh            Energy/eV
      -------------------------------------------------------------
         1        2.0000           -0.6714938             -18.2723
       ...           ...                  ...                  ...
        15        2.0000           -0.4886596             -13.2971
        16        2.0000           -0.4826103             -13.1325
        17        2.0000           -0.4752360             -12.9318
        18        2.0000           -0.4732881             -12.8788
        19        2.0000           -0.4708097             -12.8114
        20        2.0000           -0.4334835             -11.7957
        21        2.0000           -0.4193923             -11.4122
        22        2.0000           -0.4179505             -11.3730
        23        2.0000           -0.4030182             -10.9667
        24        2.0000           -0.3999997             -10.8845
        25        2.0000           -0.3993907             -10.8680
        26        2.0000           -0.3823798             -10.4051
        27        2.0000           -0.3638808              -9.9017 (HOMO)
        28                         -0.2408147              -6.5529 (LUMO)
        29                         -0.2207274              -6.0063
        30                         -0.1562148              -4.2508
        31                         -0.0723152              -1.9678
        32                          0.1106986               3.0123
        33                          0.1314705               3.5775
        34                          0.1361290               3.7043
        35                          0.1679883               4.5712
        36                          0.1725123               4.6943
        37                          0.1995311               5.4295
        38                          0.2026887               5.5154
       ...                                ...                  ...
        47                          0.6898941              18.7730
      -------------------------------------------------------------
                  HL-Gap            0.1230661 Eh            3.3488 eV

     #   Z          covCN         q      C6AA      α(0)
     1   6 C        2.923    -0.026    28.652     8.778
     2   6 C        2.919    -0.037    28.927     8.820
     3   1 H        0.925     0.027     2.635     2.538
     4   6 C        2.970    -0.044    29.096     8.848
     5   1 H        0.925     0.025     2.652     2.547
     6   6 C        2.921    -0.035    28.883     8.813
     7   1 H        0.926     0.047     2.358     2.401
     8   6 C        2.919    -0.037    28.927     8.820
     9   1 H        0.926     0.056     2.250     2.345
    10   6 C        2.923    -0.026    28.663     8.780
    11   1 H        0.926     0.048     2.350     2.397
    12   6 C        2.693     0.358    20.932     7.488
    13   8 O        0.857    -0.657    27.560     7.039
    14   8 O        0.857    -0.648    27.341     7.010
    15   8 O        1.607    -0.683    27.265     7.047
    16   1 H        0.802     0.308     0.697     1.311
    17   1 H        0.805     0.327     0.645     1.262

Wiberg/Mayer (AO) data.
largest (>0.10) Wiberg bond orders for each atom

     #   Z sym  total        # sym  WBO       # sym  WBO       # sym  WBO
 ---------------------------------------------------------------------------
     1   6 C    3.991 --     2 C    1.449     4 C    1.405     5 H    0.968
                             8 C    0.109
     2   6 C    3.990 --     1 C    1.449     6 C    1.435     7 H    0.969
                            10 C    0.109
     3   1 H    0.999 --    10 C    0.968
     4   6 C    3.984 --     1 C    1.405    10 C    1.404    12 C    0.957
                             6 C    0.108
     5   1 H    0.999 --     1 C    0.968
     6   6 C    3.990 --     2 C    1.435     8 C    1.435     9 H    0.969
                             4 C    0.108
     7   1 H    0.997 --     2 C    0.969
     8   6 C    3.990 --    10 C    1.449     6 C    1.435    11 H    0.969
                             1 C    0.109
     9   1 H    0.996 --     6 C    0.969
    10   6 C    3.991 --     8 C    1.449     4 C    1.404     3 H    0.968
                             2 C    0.109
    11   1 H    0.997 --     8 C    0.969
    12   6 C    3.927 --    14 O    1.491    13 O    1.439     4 C    0.957
    13   8 O    1.813 --    12 C    1.439    14 O    0.210
    14   8 O    1.793 --    12 C    1.491    13 O    0.210
    15   8 O    1.766 --    17 H    0.891    16 H    0.843
    16   1 H    0.905 --    15 O    0.843
    17   1 H    0.893 --    15 O    0.891
 ---------------------------------------------------------------------------

molecular dipole:
                 x           y           z       tot (Debye)
 q only:       10.842       2.238      -9.933
   full:       10.800       2.097     -10.055      37.884

 projected vibrational frequencies (cm⁻¹)
eigval :       -0.00    -0.00    -0.00    -0.00    -0.00     0.00
eigval :       28.56    32.49    38.45   144.43   148.88   223.26
eigval :      227.90   363.22   382.23   391.08   400.67   517.05
eigval :      587.14   641.81   645.58   694.45   733.02   788.89
eigval :      800.43   880.79   906.77   925.79   931.66   982.11
eigval :     1076.00  1108.53  1158.26  1174.22  1190.86  1272.99
eigval :     1324.74  1336.69  1433.05  1461.08  1523.36  1589.14
eigval :     1596.14  1613.78  3065.91  3067.26  3076.51  3080.54
eigval :     3093.68  3109.89  3598.37

   temp. (K)  partition function   enthalpy   heat capacity  entropy
                                   cal/mol     cal/K/mol   cal/K/mol   J/K/mol
 298.15  VIB  0.855E+04             4829.700     28.381     29.954
         ROT  0.740E+06              888.752      2.981     29.837
         INT  0.632E+10             5718.452     31.362     59.791
         TR   0.159E+28             1481.254      4.968     40.684
         TOT                        7199.7058    36.3300   100.4751   420.3880

       T/K    H(0)-H(T)+PV         H(T)/Eh          T*S/Eh         G(T)/Eh
   ------------------------------------------------------------------------
    298.15    0.114735E-01    0.133054E+00    0.477390E-01    0.853150E-01
   ------------------------------------------------------------------------

         :::::::::::::::::::::::::::::::::::::::::::::::::::::
         ::                  THERMODYNAMIC                  ::
         :::::::::::::::::::::::::::::::::::::::::::::::::::::
         :: total free energy         -30.996059745788 Eh   ::
         ::.................................................::
         :: total energy              -31.081374752999 Eh   ::
         :: zero point energy           0.121580531262 Eh   ::
         :: G(RRHO) w/o ZPVE           -0.036265524051 Eh   ::
         :: G(RRHO) contrib.            0.085315007210 Eh   ::
         :::::::::::::::::::::::::::::::::::::::::::::::::::::

           -------------------------------------------------
          | TOTAL ENERGY              -31.081374752999 Eh   |
          | TOTAL ENTHALPY            -30.948320760151 Eh   |
          | TOTAL FREE ENERGY         -30.996059745788 Eh   |
          | GRADIENT NORM               0.000497918319 Eh/α |
          | HOMO-LUMO GAP               3.348798867464 eV   |
           -------------------------------------------------

 * finished run on 2025/10/18 at 03:46:46.955
normal termination of xtb
