   * xtb version 6.7.1 (edcfbbe) compiled by 'albert@albert-system' on 2024-07-22

   ID    Z sym.   atoms
    1    6 C      1, 2, 4, 6, 8, 10, 12
    2    1 H      3, 5, 7, 9, 11, 16, 17
    3    8 O      13-15

          program call               : xtb tb_lite_results_shiftn0p05_gp782_b0_rot0_complex.xyz --ohess --chrg -1 --alpb water
      * Solvation model:               ALPB
        Solvent                        water
        Solvent mass                       1.8000E+01 g/mol
          :  Hamiltonian                  GFN2-xTB          :
 * total energy  :   -31.0769416 Eh     change       -0.1898037E-09 Eh
 * total energy  :   -31.0802713 Eh     change       -0.3329708E-02 Eh
 * total energy  :   -31.0800967 Eh     change        0.1746274E-03 Eh
 * total energy  :   -31.0806874 Eh     change       -0.5906723E-03 Eh
 * total energy  :   -31.0807748 Eh     change       -0.8745905E-04 Eh
 * total energy  :   -31.0808985 Eh     change       -0.1236308E-03 Eh
 * total energy  :   -31.0809570 Eh     change       -0.5852227E-04 Eh
 * total energy  :   -31.0810105 Eh     change       -0.5354069E-04 Eh
 * total energy  :   -31.0810562 Eh     change       -0.4564325E-04 Eh
 * total energy  :   -31.0811126 Eh     change       -0.5638427E-04 Eh
 * total energy  :   -31.0812933 Eh     change       -0.5249459E-04 Eh
 * total energy  :   -31.0813181 Eh     change       -0.2478155E-04 Eh
 * total energy  :   -31.0813359 Eh     change       -0.1784712E-04 Eh
 * total energy  :   -31.0813549 Eh     change       -0.1893457E-04 Eh
 * total energy  :   -31.0813685 Eh     change       -0.1366301E-04 Eh
 * total energy  :   -31.0813698 Eh     change       -0.1278362E-05 Eh
 * total energy  :   -31.0813750 Eh     change       -0.5183840E-05 Eh
 * total energy  :   -31.0813752 Eh     change       -0.2686175E-06 Eh
 * total energy  :   -31.0813765 Eh     change       -0.1243120E-05 Eh
   *** GEOMETRY OPTIMIZATION CONVERGED AFTER 24 ITERATIONS ***

 final structure:
================
17
 xtb: 6.7.1 (edcfbbe)
C           -4.19839535580599       -1.93336784170828        1.95526968222022
C           -3.73983842014902       -2.54899149869476        0.80515671733512
H           -7.00523716749995       -3.72073869130539        2.47850448189133
C           -5.37721248849183       -2.35922623887061        2.55531569313418
H           -3.66308887678651       -1.11450721413951        2.41591516614873
C           -4.45710829444290       -3.59528061172243        0.24731543423511
H           -2.82327880057844       -2.21161243952029        0.34506194651727
C           -5.63287998422479       -4.02522937487549        0.84123056936328
H           -4.09947129152964       -4.07608536301251       -0.65050487999596
C           -6.09150571875029       -3.40917921437035        1.99136261339903
H           -6.19400675116861       -4.84036122311345        0.40954733546364
C           -5.87722659582206       -1.68111163812917        3.81178292975618
O           -5.19336109879296       -0.75205583337956        4.29404299445814
O           -6.96053249364146       -2.09798888892163        4.30316235353968
O           -7.38299210538530       -0.53477315327843        6.49846499989002
H           -7.33030810865556       -1.15410189472020        5.73409058364126
H           -6.58456242219011       -0.00139122807174        6.41341380490072

          :  Hamiltonian                  GFN2-xTB          :
         :: gradient norm              0.000865253469 Eh/a0 ::
         :: HOMO-LUMO gap              3.348782231288 eV    ::
         :: SCC energy               -31.474439726187 Eh    ::
         :: -> dispersion             -0.013692215911 Eh    ::
         :: -> Gsolv                  -0.112592377975 Eh    ::
         :: repulsion energy           0.393063238989 Eh    ::

    * Orbital Energies and Occupations

         #    Occupation            Energy/Eh            Energy/eV
      -------------------------------------------------------------
         1        2.0000           -0.6716508             -18.2765
       ...           ...                  ...                  ...
        15        2.0000           -0.4888815             -13.3031
        16        2.0000           -0.4823135             -13.1244
        17        2.0000           -0.4754596             -12.9379
        18        2.0000           -0.4734542             -12.8833
        19        2.0000           -0.4708723             -12.8131
        20        2.0000           -0.4334651             -11.7952
        21        2.0000           -0.4191036             -11.4044
        22        2.0000           -0.4180193             -11.3749
        23        2.0000           -0.4030818             -10.9684
        24        2.0000           -0.4001106             -10.8876
        25        2.0000           -0.3994870             -10.8706
        26        2.0000           -0.3825833             -10.4106
        27        2.0000           -0.3640626              -9.9066 (HOMO)
        28                         -0.2409972              -6.5579 (LUMO)
        29                         -0.2208341              -6.0092
        30                         -0.1562839              -4.2527
        31                         -0.0723106              -1.9677
        32                          0.1110227               3.0211
        33                          0.1313323               3.5737
        34                          0.1370664               3.7298
        35                          0.1680674               4.5733
        36                          0.1724501               4.6926
        37                          0.1992525               5.4219
        38                          0.2025714               5.5122
       ...                                ...                  ...
        47                          0.6895139              18.7626
      -------------------------------------------------------------
                  HL-Gap            0.1230655 Eh            3.3488 eV

     #   Z          covCN         q      C6AA      α(0)
     1   6 C        2.923    -0.026    28.663     8.780
     2   6 C        2.918    -0.037    28.926     8.820
     3   1 H        0.925     0.026     2.651     2.546
     4   6 C        2.970    -0.044    29.096     8.848
     5   1 H        0.925     0.027     2.632     2.537
     6   6 C        2.921    -0.035    28.882     8.813
     7   1 H        0.926     0.048     2.350     2.397
     8   6 C        2.919    -0.037    28.927     8.820
     9   1 H        0.926     0.056     2.250     2.346
    10   6 C        2.923    -0.026    28.652     8.778
    11   1 H        0.926     0.047     2.358     2.401
    12   6 C        2.693     0.357    20.933     7.488
    13   8 O        0.857    -0.648    27.331     7.009
    14   8 O        0.857    -0.657    27.562     7.039
    15   8 O        1.607    -0.682    27.236     7.044
    16   1 H        0.802     0.308     0.697     1.311
    17   1 H        0.805     0.325     0.650     1.266

Wiberg/Mayer (AO) data.
largest (>0.10) Wiberg bond orders for each atom

     #   Z sym  total        # sym  WBO       # sym  WBO       # sym  WBO
 ---------------------------------------------------------------------------
     1   6 C    3.991 --     2 C    1.449     4 C    1.404     5 H    0.968
                             8 C    0.109
     2   6 C    3.990 --     1 C    1.449     6 C    1.435     7 H    0.969
                            10 C    0.109
     3   1 H    0.999 --    10 C    0.968
     4   6 C    3.984 --    10 C    1.405     1 C    1.404    12 C    0.958
                             6 C    0.108
     5   1 H    0.999 --     1 C    0.968
     6   6 C    3.990 --     8 C    1.436     2 C    1.435     9 H    0.969
                             4 C    0.108
     7   1 H    0.997 --     2 C    0.969
     8   6 C    3.990 --    10 C    1.448     6 C    1.436    11 H    0.969
                             1 C    0.109
     9   1 H    0.996 --     6 C    0.969
    10   6 C    3.991 --     8 C    1.448     4 C    1.405     3 H    0.968
                             2 C    0.109
    11   1 H    0.997 --     8 C    0.969
    12   6 C    3.927 --    13 O    1.491    14 O    1.440     4 C    0.958
    13   8 O    1.794 --    12 C    1.491    14 O    0.210
    14   8 O    1.813 --    12 C    1.440    13 O    0.210
    15   8 O    1.767 --    17 H    0.891    16 H    0.843
    16   1 H    0.905 --    15 O    0.843
    17   1 H    0.894 --    15 O    0.891
 ---------------------------------------------------------------------------

molecular dipole:
                 x           y           z       tot (Debye)
 q only:       12.386       2.277      -9.419
   full:       12.524       2.267      -9.552      40.447

 projected vibrational frequencies (cm⁻¹)
eigval :       -0.00     0.00     0.00     0.00     0.00     0.00
eigval :       29.12    34.08    46.37   146.59   148.14   225.78
eigval :      228.08   362.75   381.97   396.50   401.16   516.03
eigval :      587.03   641.51   645.89   694.21   733.82   789.19
eigval :      800.90   880.00   907.06   924.94   930.89   982.07
eigval :     1075.88  1108.14  1158.18  1173.81  1190.62  1272.93
eigval :     1324.44  1337.12  1432.86  1461.07  1529.05  1589.05
eigval :     1595.73  1613.42  3065.91  3067.18  3075.80  3080.22
eigval :     3092.87  3106.28  3587.77

   temp. (K)  partition function   enthalpy   heat capacity  entropy
                                   cal/mol     cal/K/mol   cal/K/mol   J/K/mol
 298.15  VIB  0.667E+04             4809.470     28.563     29.868
         ROT  0.733E+06              888.752      2.981     29.818
         INT  0.489E+10             5698.222     31.544     59.685
         TR   0.159E+28             1481.254      4.968     40.684
         TOT                        7179.4761    36.5124   100.3693   419.9454

       T/K    H(0)-H(T)+PV         H(T)/Eh          T*S/Eh         G(T)/Eh
   ------------------------------------------------------------------------
    298.15    0.114412E-01    0.133033E+00    0.476887E-01    0.853438E-01
   ------------------------------------------------------------------------

         :::::::::::::::::::::::::::::::::::::::::::::::::::::
         ::                  THERMODYNAMIC                  ::
         :::::::::::::::::::::::::::::::::::::::::::::::::::::
         :: total free energy         -30.996032674734 Eh   ::
         ::.................................................::
         :: total energy              -31.081376487807 Eh   ::
         :: zero point energy           0.121591306086 Eh   ::
         :: G(RRHO) w/o ZPVE           -0.036247493013 Eh   ::
         :: G(RRHO) contrib.            0.085343813073 Eh   ::
         :::::::::::::::::::::::::::::::::::::::::::::::::::::

           -------------------------------------------------
          | TOTAL ENERGY              -31.081376487807 Eh   |
          | TOTAL ENTHALPY            -30.948343958274 Eh   |
          | TOTAL FREE ENERGY         -30.996032674734 Eh   |
          | GRADIENT NORM               0.000865265827 Eh/α |
          | HOMO-LUMO GAP               3.348781772594 eV   |
           -------------------------------------------------

 * finished run on 2025/10/18 at 03:46:50.103
normal termination of xtb
