   * xtb version 6.7.1 (edcfbbe) compiled by 'albert@albert-system' on 2024-07-22

   ID    Z sym.   atoms
    1    6 C      1, 2, 4, 6, 8, 10, 12
    2    1 H      3, 5, 7, 9, 11, 16, 17
    3    8 O      13-15

          program call               : xtb tb_lite_results_shiftn0p05_gp812_b0_rot0_complex.xyz --ohess --chrg -1 --alpb water
      * Solvation model:               ALPB
        Solvent                        water
        Solvent mass                       1.8000E+01 g/mol
          :  Hamiltonian                  GFN2-xTB          :
 * total energy  :   -31.0771143 Eh     change       -0.2132481E-09 Eh
 * total energy  :   -31.0800206 Eh     change       -0.2906336E-02 Eh
 * total energy  :   -31.0804113 Eh     change       -0.3906607E-03 Eh
 * total energy  :   -31.0808214 Eh     change       -0.4101462E-03 Eh
 * total energy  :   -31.0809733 Eh     change       -0.1518159E-03 Eh
 * total energy  :   -31.0808570 Eh     change        0.1162155E-03 Eh
 * total energy  :   -31.0811548 Eh     change       -0.2977054E-03 Eh
 * total energy  :   -31.0812103 Eh     change       -0.5558748E-04 Eh
 * total energy  :   -31.0812969 Eh     change       -0.8656450E-04 Eh
 * total energy  :   -31.0813165 Eh     change       -0.1955855E-04 Eh
 * total energy  :   -31.0813297 Eh     change       -0.1322163E-04 Eh
 * total energy  :   -31.0813391 Eh     change       -0.9420941E-05 Eh
 * total energy  :   -31.0813431 Eh     change       -0.3942997E-05 Eh
 * total energy  :   -31.0813448 Eh     change       -0.1794827E-05 Eh
   *** GEOMETRY OPTIMIZATION CONVERGED AFTER 14 ITERATIONS ***

 final structure:
================
17
 xtb: 6.7.1 (edcfbbe)
C           -4.14734210273637       -1.97664101448426        1.95870757868816
C           -3.84954551361617       -2.44475736806203        0.69208635153522
H           -6.94374526630254       -3.74956030905988        2.57890695382312
C           -5.26506453705614       -2.44981995084475        2.63522883032786
H           -3.53075886415012       -1.23875928832458        2.45325008447193
C           -4.66932123375928       -3.38740899761701        0.09241343008922
H           -2.97857084655116       -2.07253373587073        0.17384184301106
C           -5.78525433717487       -3.86347001057280        0.76188048348136
H           -4.43867289233447       -3.75103607076136       -0.89740443493257
C           -6.08134056920799       -3.39739214763065        2.02976660446176
H           -6.42647549399141       -4.59759754885746        0.29751531692556
C           -5.59306721667359       -1.92852913037960        4.01747082700828
O           -4.89126089976575       -1.00401893380392        4.48241005079407
O           -6.56499056837735       -2.45806798668460        4.61971000401413
O           -6.93207937203691       -1.08616253015461        6.94874521550264
H           -6.86856950537134       -1.64566244933497        6.14170209916242
H           -6.22663474202410       -0.43899432314640        6.84075223187277

          :  Hamiltonian                  GFN2-xTB          :
         :: gradient norm              0.000668272164 Eh/a0 ::
         :: HOMO-LUMO gap              3.349837875822 eV    ::
         :: SCC energy               -31.474659649685 Eh    ::
         :: -> dispersion             -0.013666041656 Eh    ::
         :: -> Gsolv                  -0.113029646686 Eh    ::
         :: repulsion energy           0.393314803981 Eh    ::

    * Orbital Energies and Occupations

         #    Occupation            Energy/Eh            Energy/eV
      -------------------------------------------------------------
         1        2.0000           -0.6715051             -18.2726
       ...           ...                  ...                  ...
        15        2.0000           -0.4886317             -13.2963
        16        2.0000           -0.4826184             -13.1327
        17        2.0000           -0.4752985             -12.9335
        18        2.0000           -0.4732938             -12.8790
        19        2.0000           -0.4707604             -12.8100
        20        2.0000           -0.4335023             -11.7962
        21        2.0000           -0.4195242             -11.4158
        22        2.0000           -0.4179757             -11.3737
        23        2.0000           -0.4029838             -10.9657
        24        2.0000           -0.4000080             -10.8848
        25        2.0000           -0.3993486             -10.8668
        26        2.0000           -0.3823465             -10.4042
        27        2.0000           -0.3638151              -9.8999 (HOMO)
        28                         -0.2407107              -6.5501 (LUMO)
        29                         -0.2207512              -6.0069
        30                         -0.1562270              -4.2512
        31                         -0.0724224              -1.9707
        32                          0.1106717               3.0115
        33                          0.1313754               3.5749
        34                          0.1360979               3.7034
        35                          0.1677884               4.5658
        36                          0.1725246               4.6946
        37                          0.1994797               5.4281
        38                          0.2025715               5.5123
       ...                                ...                  ...
        47                          0.6897363              18.7687
      -------------------------------------------------------------
                  HL-Gap            0.1231043 Eh            3.3498 eV

     #   Z          covCN         q      C6AA      α(0)
     1   6 C        2.923    -0.026    28.663     8.780
     2   6 C        2.918    -0.037    28.927     8.820
     3   1 H        0.925     0.025     2.653     2.547
     4   6 C        2.970    -0.044    29.096     8.848
     5   1 H        0.925     0.027     2.636     2.539
     6   6 C        2.921    -0.035    28.883     8.813
     7   1 H        0.926     0.048     2.351     2.398
     8   6 C        2.919    -0.037    28.927     8.820
     9   1 H        0.926     0.056     2.250     2.346
    10   6 C        2.923    -0.026    28.652     8.778
    11   1 H        0.926     0.047     2.358     2.401
    12   6 C        2.693     0.358    20.931     7.488
    13   8 O        0.857    -0.649    27.349     7.012
    14   8 O        0.857    -0.657    27.556     7.038
    15   8 O        1.607    -0.683    27.260     7.047
    16   1 H        0.802     0.308     0.697     1.311
    17   1 H        0.805     0.327     0.645     1.261

Wiberg/Mayer (AO) data.
largest (>0.10) Wiberg bond orders for each atom

     #   Z sym  total        # sym  WBO       # sym  WBO       # sym  WBO
 ---------------------------------------------------------------------------
     1   6 C    3.991 --     2 C    1.449     4 C    1.404     5 H    0.968
                             8 C    0.109
     2   6 C    3.990 --     1 C    1.449     6 C    1.435     7 H    0.969
                            10 C    0.109
     3   1 H    0.999 --    10 C    0.968
     4   6 C    3.984 --    10 C    1.405     1 C    1.404    12 C    0.957
                             6 C    0.108
     5   1 H    0.999 --     1 C    0.968
     6   6 C    3.990 --     8 C    1.435     2 C    1.435     9 H    0.969
                             4 C    0.108
     7   1 H    0.997 --     2 C    0.969
     8   6 C    3.990 --    10 C    1.449     6 C    1.435    11 H    0.969
                             1 C    0.109
     9   1 H    0.996 --     6 C    0.969
    10   6 C    3.991 --     8 C    1.449     4 C    1.405     3 H    0.968
                             2 C    0.109
    11   1 H    0.997 --     8 C    0.969
    12   6 C    3.927 --    13 O    1.491    14 O    1.440     4 C    0.957
    13   8 O    1.793 --    12 C    1.491    14 O    0.210
    14   8 O    1.813 --    12 C    1.440    13 O    0.210
    15   8 O    1.766 --    17 H    0.891    16 H    0.844
    16   1 H    0.905 --    15 O    0.844
    17   1 H    0.893 --    15 O    0.891
 ---------------------------------------------------------------------------

molecular dipole:
                 x           y           z       tot (Debye)
 q only:       11.582       3.061     -10.006
   full:       11.710       3.077     -10.147      40.153

 projected vibrational frequencies (cm⁻¹)
eigval :       -0.00    -0.00    -0.00     0.00     0.00     0.00
eigval :       27.36    32.72    40.74   139.44   150.34   209.38
eigval :      227.82   363.38   379.71   395.83   400.69   517.71
eigval :      587.15   641.70   645.44   694.20   738.43   788.75
eigval :      800.42   880.07   906.66   925.25   931.10   982.08
eigval :     1075.91  1108.54  1158.24  1174.18  1190.81  1272.99
eigval :     1324.38  1337.43  1432.88  1461.00  1526.82  1589.15
eigval :     1595.75  1614.23  3065.81  3067.11  3075.80  3079.85
eigval :     3092.98  3121.40  3596.07

   temp. (K)  partition function   enthalpy   heat capacity  entropy
                                   cal/mol     cal/K/mol   cal/K/mol   J/K/mol
 298.15  VIB  0.883E+04             4842.570     28.426     30.121
         ROT  0.740E+06              888.752      2.981     29.839
         INT  0.654E+10             5731.323     31.407     59.960
         TR   0.159E+28             1481.254      4.968     40.684
         TOT                        7212.5765    36.3749   100.6436   421.0928

       T/K    H(0)-H(T)+PV         H(T)/Eh          T*S/Eh         G(T)/Eh
   ------------------------------------------------------------------------
    298.15    0.114940E-01    0.133074E+00    0.478190E-01    0.852555E-01
   ------------------------------------------------------------------------

         :::::::::::::::::::::::::::::::::::::::::::::::::::::
         ::                  THERMODYNAMIC                  ::
         :::::::::::::::::::::::::::::::::::::::::::::::::::::
         :: total free energy         -30.996089372860 Eh   ::
         ::.................................................::
         :: total energy              -31.081344844109 Eh   ::
         :: zero point energy           0.121580516286 Eh   ::
         :: G(RRHO) w/o ZPVE           -0.036325045038 Eh   ::
         :: G(RRHO) contrib.            0.085255471249 Eh   ::
         :::::::::::::::::::::::::::::::::::::::::::::::::::::

           -------------------------------------------------
          | TOTAL ENERGY              -31.081344844109 Eh   |
          | TOTAL ENTHALPY            -30.948270355569 Eh   |
          | TOTAL FREE ENERGY         -30.996089372860 Eh   |
          | GRADIENT NORM               0.000667974908 Eh/α |
          | HOMO-LUMO GAP               3.349839362915 eV   |
           -------------------------------------------------

 * finished run on 2025/10/18 at 03:46:43.741
normal termination of xtb
