   * xtb version 6.7.1 (edcfbbe) compiled by 'albert@albert-system' on 2024-07-22

   ID    Z sym.   atoms
    1    6 C      1, 2, 4, 6, 8, 10, 12
    2    1 H      3, 5, 7, 9, 11
    3    8 O      13, 14

          program call               : xtb tb_lite_results_shiftn0p05_gp782_b0_rot0_solute.xyz --ohess --chrg -1
          :  Hamiltonian                  GFN2-xTB          :
 * total energy  :   -25.8820856 Eh     change       -0.1248956E-09 Eh
 * total energy  :   -25.8849442 Eh     change       -0.2858588E-02 Eh
 * total energy  :   -25.8852964 Eh     change       -0.3521874E-03 Eh
 * total energy  :   -25.8853880 Eh     change       -0.9163100E-04 Eh
 * total energy  :   -25.8853345 Eh     change        0.5354006E-04 Eh
 * total energy  :   -25.8854182 Eh     change       -0.8373904E-04 Eh
 * total energy  :   -25.8854186 Eh     change       -0.3587320E-06 Eh
   *** GEOMETRY OPTIMIZATION CONVERGED AFTER 7 ITERATIONS ***

 final structure:
================
14
 xtb: 6.7.1 (edcfbbe)
C           -4.17805769780808       -1.98715961327309        1.99189542090984
C           -3.84216166334497       -2.43641507216573        0.72753107283800
H           -6.97567288803853       -3.77555266814198        2.51158848222307
C           -5.30837156156968       -2.46876040340203        2.63822937899176
H           -3.57331359879688       -1.25375681311580        2.50794137738614
C           -4.63724361413227       -3.37792183437867        0.09339372012673
H           -2.95798401129597       -2.05574474849174        0.22756166966859
C           -5.76751482744428       -3.86535125118742        0.73026868895845
H           -4.37585674022064       -3.73201137871869       -0.89781301116270
C           -6.09839440378277       -3.41133999395767        1.99426295758002
H           -6.38863709055570       -4.60238289843358        0.23263320142359
C           -5.68522110702375       -1.95827638911444        4.06708119581087
O           -4.90223377823381       -1.13261775875779        4.55937330322548
O           -6.72386637134400       -2.43761436675649        4.54518067019140

          :  Hamiltonian                  GFN2-xTB          :
         :: gradient norm              0.000237829464 Eh/a0 ::
         :: HOMO-LUMO gap              2.315882271421 eV    ::
         :: SCC energy               -26.248993566398 Eh    ::
         :: -> dispersion             -0.012280377679 Eh    ::
         :: repulsion energy           0.363574993157 Eh    ::

    * Orbital Energies and Occupations

         #    Occupation            Energy/Eh            Energy/eV
      -------------------------------------------------------------
         1        2.0000           -0.5054980             -13.7553
       ...           ...                  ...                  ...
        11        2.0000           -0.3496685              -9.5150
        12        2.0000           -0.3421498              -9.3104
        13        2.0000           -0.3407142              -9.2713
        14        2.0000           -0.3360539              -9.1445
        15        2.0000           -0.3165650              -8.6142
        16        2.0000           -0.2962213              -8.0606
        17        2.0000           -0.2942058              -8.0057
        18        2.0000           -0.2762573              -7.5173
        19        2.0000           -0.2660320              -7.2391
        20        2.0000           -0.2551727              -6.9436
        21        2.0000           -0.2025599              -5.5119
        22        2.0000           -0.1879188              -5.1135
        23        2.0000           -0.1737153              -4.7270 (HOMO)
        24                         -0.0886082              -2.4112 (LUMO)
        25                         -0.0839640              -2.2848
        26                          0.0141062               0.3838
        27                          0.0803764               2.1872
        28                          0.2381112               6.4793
        29                          0.2548056               6.9336
        30                          0.2948127               8.0223
        31                          0.2965933               8.0707
        32                          0.3350815               9.1180
        33                          0.3356615               9.1338
        34                          0.5244164              14.2701
       ...                                ...                  ...
        41                          0.9069618              24.6797
      -------------------------------------------------------------
                  HL-Gap            0.0851072 Eh            2.3159 eV

     #   Z          covCN         q      C6AA      α(0)
     1   6 C        2.923    -0.029    28.726     8.789
     2   6 C        2.918    -0.042    29.051     8.839
     3   1 H        0.925     0.034     2.529     2.487
     4   6 C        2.963    -0.036    28.886     8.816
     5   1 H        0.925     0.034     2.529     2.487
     6   6 C        2.920    -0.045    29.112     8.848
     7   1 H        0.925    -0.008     3.203     2.799
     8   6 C        2.918    -0.042    29.051     8.839
     9   1 H        0.925    -0.012     3.271     2.828
    10   6 C        2.923    -0.029    28.726     8.789
    11   1 H        0.925    -0.008     3.203     2.799
    12   6 C        2.684     0.364    20.833     7.470
    13   8 O        0.856    -0.590    25.878     6.820
    14   8 O        0.856    -0.590    25.878     6.820

Wiberg/Mayer (AO) data.
largest (>0.10) Wiberg bond orders for each atom

     #   Z sym  total        # sym  WBO       # sym  WBO       # sym  WBO
 ---------------------------------------------------------------------------
     1   6 C    3.991 --     2 C    1.448     4 C    1.409     5 H    0.966
                             8 C    0.107
     2   6 C    3.991 --     1 C    1.448     6 C    1.433     7 H    0.971
                            10 C    0.107
     3   1 H    0.999 --    10 C    0.966
     4   6 C    3.945 --    10 C    1.409     1 C    1.409    12 C    0.878
                             6 C    0.112
     5   1 H    0.999 --     1 C    0.966
     6   6 C    3.990 --     8 C    1.433     2 C    1.433     9 H    0.972
                             4 C    0.112
     7   1 H    0.999 --     2 C    0.971
     8   6 C    3.991 --    10 C    1.448     6 C    1.433    11 H    0.971
                             1 C    0.107
     9   1 H    0.999 --     6 C    0.972
    10   6 C    3.991 --     8 C    1.448     4 C    1.409     3 H    0.966
                             2 C    0.107
    11   1 H    0.999 --     8 C    0.971
    12   6 C    3.948 --    14 O    1.520    13 O    1.520     4 C    0.878
    13   8 O    1.853 --    12 C    1.520    14 O    0.241
    14   8 O    1.853 --    12 C    1.520    13 O    0.241
 ---------------------------------------------------------------------------

molecular dipole:
                 x           y           z       tot (Debye)
 q only:       10.706       3.751      -7.545
   full:       10.798       3.627      -7.894      35.225

 projected vibrational frequencies (cm⁻¹)
eigval :       -0.00    -0.00    -0.00     0.00     0.00     0.00
eigval :       28.16   133.40   174.23   344.20   352.91   393.76
eigval :      504.33   586.37   639.96   640.96   701.76   764.89
eigval :      782.36   877.82   894.50   926.42   931.76   977.07
eigval :     1072.40  1099.59  1130.26  1182.87  1187.17  1271.24
eigval :     1287.84  1326.36  1439.35  1459.52  1590.31  1590.45
eigval :     1758.46  3005.44  3012.38  3029.41  3068.20  3068.68

   temp. (K)  partition function   enthalpy   heat capacity  entropy
                                   cal/mol     cal/K/mol   cal/K/mol   J/K/mol
 298.15  VIB   78.7                 2864.798     20.311     16.603
         ROT  0.200E+06              888.752      2.981     27.233
         INT  0.157E+08             3753.550     23.292     43.836
         TR   0.129E+28             1481.254      4.968     40.271
         TOT                        5234.8041    28.2605    84.1066   351.9021

       T/K    H(0)-H(T)+PV         H(T)/Eh          T*S/Eh         G(T)/Eh
   ------------------------------------------------------------------------
    298.15    0.834219E-02    0.106838E+00    0.399618E-01    0.668765E-01
   ------------------------------------------------------------------------

         :::::::::::::::::::::::::::::::::::::::::::::::::::::
         ::                  THERMODYNAMIC                  ::
         :::::::::::::::::::::::::::::::::::::::::::::::::::::
         :: total free energy         -25.818542095647 Eh   ::
         ::.................................................::
         :: total energy              -25.885418573240 Eh   ::
         :: zero point energy           0.098496059500 Eh   ::
         :: G(RRHO) w/o ZPVE           -0.031619581907 Eh   ::
         :: G(RRHO) contrib.            0.066876477593 Eh   ::
         :::::::::::::::::::::::::::::::::::::::::::::::::::::

           -------------------------------------------------
          | TOTAL ENERGY              -25.885418573240 Eh   |
          | TOTAL ENTHALPY            -25.778580322410 Eh   |
          | TOTAL FREE ENERGY         -25.818542095647 Eh   |
          | GRADIENT NORM               0.000237725034 Eh/α |
          | HOMO-LUMO GAP               2.315883732485 eV   |
           -------------------------------------------------

 * finished run on 2025/10/18 at 03:46:50.891
normal termination of xtb
