   * xtb version 6.7.1 (edcfbbe) compiled by 'albert@albert-system' on 2024-07-22

   ID    Z sym.   atoms
    1    6 C      1, 2, 6, 11, 12, 15
    2    1 H      3-5, 7, 8, 13, 14, 16-19
    3    8 O      9, 10

          program call               : xtb xyz.xyz --charge -1 --ohess
          :  Hamiltonian                  GFN2-xTB          :
 * total energy  :   -26.8219698 Eh     change       -0.8152767E-10 Eh
 * total energy  :   -26.8242770 Eh     change       -0.2307255E-02 Eh
 * total energy  :   -26.8247896 Eh     change       -0.5126065E-03 Eh
 * total energy  :   -26.8248766 Eh     change       -0.8695310E-04 Eh
 * total energy  :   -26.8249011 Eh     change       -0.2447935E-04 Eh
 * total energy  :   -26.8249033 Eh     change       -0.2246916E-05 Eh
 * total energy  :   -26.8249140 Eh     change       -0.1069120E-04 Eh
 * total energy  :   -26.8249176 Eh     change       -0.3590113E-05 Eh
   *** GEOMETRY OPTIMIZATION CONVERGED AFTER 8 ITERATIONS ***

 final structure:
================
19
 xtb: 6.7.1 (edcfbbe)
C           -5.31338885183332       -3.62055192657390        0.50684041060101
C           -6.50939425722315       -4.13390454378611        1.29107256490841
H           -2.06420779663545       -1.57681074164261        2.21368401523935
H           -1.58944051711286       -0.75449723715802        0.72436250172648
H           -3.04064679040203       -0.24620318880380        1.59368754142178
C           -7.36261532762818       -5.22382662233619        0.49681467833541
H           -6.18531526994368       -4.59694059056357        2.22830541304553
H           -7.18619680272411       -3.31227011269368        1.54516412040996
O           -6.96982578386164       -5.51268271657706       -0.63974761031500
O           -8.33763438855621       -5.66018167015659        1.12387664289049
C           -4.48169734894290       -2.60864710919646        1.29438136633641
C           -3.27894407504473       -2.09769359887662        0.50394189381398
H           -5.11409672971260       -1.76055406073115        1.57427193369816
H           -4.13040354090880       -3.07427397510365        2.22023033524635
C           -2.44027475114859       -1.10771234856077        1.30597618456240
H           -2.65614889326682       -2.94661039295170        0.21118828604563
H           -3.62972515852648       -1.61716668108374       -0.41280924824741
H           -4.68957281701833       -4.47151421146602        0.22385076326576
H           -5.66952189951010       -3.16540127173837       -0.42020779298474

          :  Hamiltonian                  GFN2-xTB          :
         :: gradient norm              0.000428307837 Eh/a0 ::
         :: HOMO-LUMO gap              5.332504532797 eV    ::
         :: SCC energy               -27.129749887602 Eh    ::
         :: -> dispersion             -0.011993357971 Eh    ::
         :: repulsion energy           0.304832294616 Eh    ::

    * Orbital Energies and Occupations

         #    Occupation            Energy/Eh            Energy/eV
      -------------------------------------------------------------
         1        2.0000           -0.5220032             -14.2044
       ...           ...                  ...                  ...
        12        2.0000           -0.3586445              -9.7592
        13        2.0000           -0.3427120              -9.3257
        14        2.0000           -0.3404985              -9.2654
        15        2.0000           -0.3274218              -8.9096
        16        2.0000           -0.3215500              -8.7498
        17        2.0000           -0.3035911              -8.2611
        18        2.0000           -0.2977527              -8.1023
        19        2.0000           -0.2944439              -8.0122
        20        2.0000           -0.2727230              -7.4212
        21        2.0000           -0.2694802              -7.3329
        22        2.0000           -0.1910156              -5.1978
        23        2.0000           -0.1764028              -4.8002
        24        2.0000           -0.1593568              -4.3363 (HOMO)
        25                          0.0366092               0.9962 (LUMO)
        26                          0.1776972               4.8354
        27                          0.2243433               6.1047
        28                          0.2267823               6.1711
        29                          0.2498880               6.7998
        30                          0.2570952               6.9959
        31                          0.2657674               7.2319
        32                          0.2898806               7.8881
        33                          0.2976794               8.1003
        34                          0.3154983               8.5851
        35                          0.3269920               8.8979
       ...                                ...                  ...
        43                          0.8818783              23.9971
      -------------------------------------------------------------
                  HL-Gap            0.1959660 Eh            5.3325 eV

     #   Z          covCN         q      C6AA      α(0)
     1   6 C        3.801    -0.045    21.384     6.584
     2   6 C        3.792    -0.093    22.292     6.724
     3   1 H        0.925     0.025     2.666     2.553
     4   1 H        0.925     0.017     2.782     2.609
     5   1 H        0.925     0.024     2.670     2.555
     6   6 C        2.677     0.366    20.793     7.462
     7   1 H        0.924    -0.007     3.187     2.792
     8   1 H        0.924    -0.008     3.192     2.794
     9   8 O        0.856    -0.597    26.051     6.843
    10   8 O        0.856    -0.603    26.187     6.861
    11   6 C        3.802    -0.054    21.540     6.608
    12   6 C        3.800    -0.050    21.479     6.599
    13   1 H        0.924     0.014     2.821     2.627
    14   1 H        0.924     0.015     2.813     2.623
    15   6 C        3.751    -0.095    22.370     6.745
    16   1 H        0.924     0.023     2.695     2.567
    17   1 H        0.924     0.022     2.706     2.572
    18   1 H        0.924     0.025     2.664     2.553
    19   1 H        0.924     0.023     2.693     2.566

Wiberg/Mayer (AO) data.
largest (>0.10) Wiberg bond orders for each atom

     #   Z sym  total        # sym  WBO       # sym  WBO       # sym  WBO
 ---------------------------------------------------------------------------
     1   6 C    3.993 --     2 C    1.012    11 C    1.001    19 H    0.978
                            18 H    0.977
     2   6 C    3.963 --     1 C    1.012     8 H    0.976     7 H    0.976
                             6 C    0.861
     3   1 H    0.999 --    15 C    0.989
     4   1 H    0.999 --    15 C    0.988
     5   1 H    0.999 --    15 C    0.989
     6   6 C    3.945 --     9 O    1.537    10 O    1.528     2 C    0.861
     7   1 H    1.000 --     2 C    0.976
     8   1 H    1.000 --     2 C    0.976
     9   8 O    1.846 --     6 C    1.537    10 O    0.230
    10   8 O    1.837 --     6 C    1.528     9 O    0.230
    11   6 C    3.995 --    12 C    1.006     1 C    1.001    13 H    0.978
                            14 H    0.978
    12   6 C    3.996 --    15 C    1.017    11 C    1.006    17 H    0.979
                            16 H    0.979
    13   1 H    1.000 --    11 C    0.978
    14   1 H    1.000 --    11 C    0.978
    15   6 C    3.998 --    12 C    1.017     5 H    0.989     3 H    0.989
                             4 H    0.988
    16   1 H    0.999 --    12 C    0.979
    17   1 H    1.000 --    12 C    0.979
    18   1 H    0.999 --     1 C    0.977
    19   1 H    0.999 --     1 C    0.978
 ---------------------------------------------------------------------------

molecular dipole:
                 x           y           z       tot (Debye)
 q only:       14.003      10.091      -0.664
   full:       14.245      10.373      -0.486      44.806

 projected vibrational frequencies (cm⁻¹)
eigval :       -0.00    -0.00     0.00     0.00     0.00     0.00
eigval :      -24.93    48.42    93.12   102.22   117.70   211.47
eigval :      231.22   310.52   399.35   516.77   578.39   652.81
eigval :      761.96   793.30   831.77   863.83   938.99   959.62
eigval :     1045.01  1055.76  1090.59  1103.13  1128.05  1205.93
eigval :     1217.48  1250.75  1274.43  1280.84  1285.54  1310.15
eigval :     1337.91  1365.71  1409.15  1485.90  1500.04  1503.89
eigval :     1506.25  1509.36  1513.51  1782.57  2927.07  2934.65
eigval :     2945.21  2956.03  2958.83  2969.09  2973.61  2985.30
eigval :     3006.07  3016.19  3023.37

   temp. (K)  partition function   enthalpy   heat capacity  entropy
                                   cal/mol     cal/K/mol   cal/K/mol   J/K/mol
 298.15  VIB   390.                 3754.159     23.972     23.656
         ROT  0.490E+06              888.752      2.981     29.020
         INT  0.191E+09             4642.912     26.953     52.676
         TR   0.120E+28             1481.254      4.968     40.120
         TOT                        6124.1658    31.9211    92.7964   388.2602

       T/K    H(0)-H(T)+PV         H(T)/Eh          T*S/Eh         G(T)/Eh
   ------------------------------------------------------------------------
    298.15    0.975948E-02    0.169844E+00    0.440906E-01    0.125753E+00
   ------------------------------------------------------------------------

         :::::::::::::::::::::::::::::::::::::::::::::::::::::
         ::                  THERMODYNAMIC                  ::
         :::::::::::::::::::::::::::::::::::::::::::::::::::::
         :: total free energy         -26.699164479786 Eh   ::
         ::.................................................::
         :: total energy              -26.824917592986 Eh   ::
         :: zero point energy           0.160084210042 Eh   ::
         :: G(RRHO) w/o ZPVE           -0.034331096841 Eh   ::
         :: G(RRHO) contrib.            0.125753113200 Eh   ::
         :::::::::::::::::::::::::::::::::::::::::::::::::::::

           -------------------------------------------------
          | TOTAL ENERGY              -26.824917592986 Eh   |
          | TOTAL ENTHALPY            -26.655073903567 Eh   |
          | TOTAL FREE ENERGY         -26.699164479786 Eh   |
          | GRADIENT NORM               0.000428259505 Eh/α |
          | HOMO-LUMO GAP               5.332506064119 eV   |
           -------------------------------------------------

 * finished run on 2025/10/18 at 03:37:29.672
