   * xtb version 6.7.1 (edcfbbe) compiled by 'albert@albert-system' on 2024-07-22

   ID    Z sym.   atoms
    1    6 C      1, 2
    2    9 F      3-5
    3    8 O      6, 7

          program call               : xtb xyz.xyz --charge -1 --ohess
          :  Hamiltonian                  GFN2-xTB          :
 * total energy  :   -26.7894127 Eh     change       -0.5200462E-10 Eh
 * total energy  :   -26.8297253 Eh     change       -0.4031251E-01 Eh
 * total energy  :   -26.8328407 Eh     change       -0.3115484E-02 Eh
 * total energy  :   -26.8339641 Eh     change       -0.1123396E-02 Eh
 * total energy  :   -26.8362547 Eh     change       -0.2290556E-02 Eh
 * total energy  :   -26.8414554 Eh     change       -0.5200696E-02 Eh
 * total energy  :   -26.8473682 Eh     change       -0.5912829E-02 Eh
 * total energy  :   -26.8601250 Eh     change       -0.1275681E-01 Eh
 * total energy  :   -26.7891686 Eh     change        0.7095645E-01 Eh
 * total energy  :   -26.8706720 Eh     change       -0.8150347E-01 Eh
 * total energy  :   -26.8779586 Eh     change        0.7216829E-03 Eh
 * total energy  :   -26.8795465 Eh     change       -0.1587907E-02 Eh
 * total energy  :   -26.8796152 Eh     change       -0.6861791E-04 Eh
 * total energy  :   -26.8796481 Eh     change       -0.3294548E-04 Eh
 * total energy  :   -26.8796628 Eh     change       -0.1474144E-04 Eh
 * total energy  :   -26.8788339 Eh     change        0.8289784E-03 Eh
 * total energy  :   -26.8800073 Eh     change       -0.1173469E-02 Eh
 * total energy  :   -26.8800166 Eh     change       -0.9267479E-05 Eh
 * total energy  :   -26.8800175 Eh     change       -0.8942738E-06 Eh
   *** GEOMETRY OPTIMIZATION CONVERGED AFTER 25 ITERATIONS ***

 final structure:
================
7
 xtb: 6.7.1 (edcfbbe)
C           -1.55137478773233       -0.14712680155627        0.45474362302213
C           -2.43402194477682        1.18877414256251        0.05053091559303
F           -2.17994859783290       -1.30838376438678        0.12254734659530
F           -0.33949804500947       -0.21578672670250       -0.15171891286192
F           -1.28746272792466       -0.25549848349237        1.78142251083967
O           -3.19588090413256        1.53425750954740        0.93723284715041
O           -2.18289799259246        1.59681012402947       -1.07033833033923

          :  Hamiltonian                  GFN2-xTB          :
         :: gradient norm              0.000266819811 Eh/a0 ::
         :: HOMO-LUMO gap              5.301743978627 eV    ::
         :: SCC energy               -26.981021682425 Eh    ::
         :: -> dispersion             -0.004089975255 Eh    ::
         :: repulsion energy           0.101004193084 Eh    ::

    * Orbital Energies and Occupations

         #    Occupation            Energy/Eh            Energy/eV
      -------------------------------------------------------------
         1        2.0000           -0.7046353             -19.1741
       ...           ...                  ...                  ...
         9        2.0000           -0.4435621             -12.0699
        10        2.0000           -0.3995666             -10.8728
        11        2.0000           -0.3786504             -10.3036
        12        2.0000           -0.3762175             -10.2374
        13        2.0000           -0.3693013             -10.0492
        14        2.0000           -0.3640603              -9.9066
        15        2.0000           -0.3627918              -9.8721
        16        2.0000           -0.3616848              -9.8419
        17        2.0000           -0.3577836              -9.7358
        18        2.0000           -0.3438784              -9.3574
        19        2.0000           -0.2540835              -6.9140
        20        2.0000           -0.2426795              -6.6036
        21        2.0000           -0.2216945              -6.0326 (HOMO)
        22                         -0.0268590              -0.7309 (LUMO)
        23                          0.1534349               4.1752
        24                          0.2083013               5.6682
        25                          0.2251935               6.1278
        26                          0.2937158               7.9924
        27                          0.5718027              15.5595
        28                          0.9274048              25.2360
      -------------------------------------------------------------
                  HL-Gap            0.1948355 Eh            5.3017 eV

     #   Z          covCN         q      C6AA      α(0)
     1   6 C        3.300     0.400    18.962     6.971
     2   6 C        2.660     0.368    20.758     7.454
     3   9 F        0.788    -0.246    11.722     4.044
     4   9 F        0.789    -0.240    11.661     4.034
     5   9 F        0.789    -0.241    11.663     4.034
     6   8 O        0.856    -0.521    24.252     6.603
     7   8 O        0.856    -0.521    24.251     6.602

Wiberg/Mayer (AO) data.
largest (>0.10) Wiberg bond orders for each atom

     #   Z sym  total        # sym  WBO       # sym  WBO       # sym  WBO
 ---------------------------------------------------------------------------
     1   6 C    3.667 --     4 F    0.934     5 F    0.933     3 F    0.927
                             2 C    0.725
     2   6 C    3.951 --     7 O    1.588     6 O    1.588     1 C    0.725
     3   9 F    1.037 --     1 C    0.927
     4   9 F    1.044 --     1 C    0.934
     5   9 F    1.044 --     1 C    0.933
     6   8 O    1.939 --     2 C    1.588     7 O    0.260
     7   8 O    1.939 --     2 C    1.588     6 O    0.260
 ---------------------------------------------------------------------------

molecular dipole:
                 x           y           z       tot (Debye)
 q only:        4.179      -1.543      -0.288
   full:        4.289      -1.715      -0.237      11.756

 projected vibrational frequencies (cm⁻¹)
eigval :       -0.00    -0.00     0.00     0.00     0.00     0.00
eigval :        3.42   161.16   185.83   304.19   399.19   452.67
eigval :      530.72   622.36   692.53   715.13  1009.61  1042.27
eigval :     1121.03  1297.05  1914.70

   temp. (K)  partition function   enthalpy   heat capacity  entropy
                                   cal/mol     cal/K/mol   cal/K/mol   J/K/mol
 298.15  VIB   408.                 2387.867     14.162     15.995
         ROT  0.198E+06              888.752      2.981     27.220
         INT  0.809E+08             3276.620     17.143     43.215
         TR   0.116E+28             1481.254      4.968     40.065
         TOT                        4757.8735    22.1108    83.2793   348.4407

       T/K    H(0)-H(T)+PV         H(T)/Eh          T*S/Eh         G(T)/Eh
   ------------------------------------------------------------------------
    298.15    0.758215E-02    0.313932E-01    0.395687E-01   -0.817545E-02
   ------------------------------------------------------------------------

         :::::::::::::::::::::::::::::::::::::::::::::::::::::
         ::                  THERMODYNAMIC                  ::
         :::::::::::::::::::::::::::::::::::::::::::::::::::::
         :: total free energy         -26.888192941971 Eh   ::
         ::.................................................::
         :: total energy              -26.880017489341 Eh   ::
         :: zero point energy           0.023811091032 Eh   ::
         :: G(RRHO) w/o ZPVE           -0.031986543662 Eh   ::
         :: G(RRHO) contrib.           -0.008175452630 Eh   ::
         :::::::::::::::::::::::::::::::::::::::::::::::::::::

           -------------------------------------------------
          | TOTAL ENERGY              -26.880017489341 Eh   |
          | TOTAL ENTHALPY            -26.848624244265 Eh   |
          | TOTAL FREE ENERGY         -26.888192941971 Eh   |
          | GRADIENT NORM               0.000266884074 Eh/α |
          | HOMO-LUMO GAP               5.301744456798 eV   |
           -------------------------------------------------

 * finished run on 2025/10/18 at 19:01:34.342
