   * xtb version 6.7.1 (edcfbbe) compiled by 'albert@albert-system' on 2024-07-22

   ID    Z sym.   atoms
    1    6 C      1, 2
    2   17 Cl     3
    3    1 H      4, 5
    4    8 O      6, 7

          program call               : xtb xyz.xyz --charge -1 --ohess
          :  Hamiltonian                  GFN2-xTB          :
 * total energy  :   -18.1196167 Eh     change       -0.1190834E-09 Eh
 * total energy  :   -18.1510589 Eh     change       -0.3144216E-01 Eh
 * total energy  :   -18.1139768 Eh     change        0.3708202E-01 Eh
 * total energy  :   -18.1639000 Eh     change       -0.4992318E-01 Eh
 * total energy  :   -18.1792062 Eh     change       -0.1530613E-01 Eh
 * total energy  :   -18.1980314 Eh     change       -0.1882521E-01 Eh
 * total energy  :   -18.2117195 Eh     change       -0.1368809E-01 Eh
 * total energy  :   -18.2181859 Eh     change       -0.6466458E-02 Eh
 * total energy  :   -18.2160342 Eh     change        0.2151741E-02 Eh
 * total energy  :   -18.2170264 Eh     change       -0.9922569E-03 Eh
 * total energy  :   -18.2217835 Eh     change       -0.3920777E-03 Eh
 * total energy  :   -18.2223561 Eh     change       -0.5726610E-03 Eh
 * total energy  :   -18.2223389 Eh     change        0.1723138E-04 Eh
 * total energy  :   -18.2233527 Eh     change       -0.1013794E-02 Eh
 * total energy  :   -18.2232379 Eh     change        0.1147619E-03 Eh
 * total energy  :   -18.2234116 Eh     change       -0.1736931E-03 Eh
 * total energy  :   -18.2234284 Eh     change       -0.1679352E-04 Eh
 * total energy  :   -18.2234355 Eh     change       -0.7037070E-05 Eh
 * total energy  :   -18.2234365 Eh     change       -0.1026495E-05 Eh
   *** GEOMETRY OPTIMIZATION CONVERGED AFTER 20 ITERATIONS ***

 final structure:
================
7
 xtb: 6.7.1 (edcfbbe)
C           -0.23426547650478       -0.79999384618662        0.93577469552633
C           -0.40357216963745       -0.76781615865088       -0.67001565010804
Cl          -1.69809831053965       -1.29391163161556        1.79730556383966
H            0.54240780550002       -1.51784742155326        1.20612284727671
H            0.01671817534764        0.19916633054899        1.29668940522899
O           -0.70819603400497        0.33567183972042       -1.11971002455924
O           -0.08228099016071       -1.81417411226307       -1.23039483720450

          :  Hamiltonian                  GFN2-xTB          :
         :: gradient norm              0.010439465784 Eh/a0 ::
         :: HOMO-LUMO gap              4.532766187222 eV    ::
         :: SCC energy               -18.330609236163 Eh    ::
         :: -> dispersion             -0.004451248455 Eh    ::
         :: repulsion energy           0.107172746595 Eh    ::

    * Orbital Energies and Occupations

         #    Occupation            Energy/Eh            Energy/eV
      -------------------------------------------------------------
         1        2.0000           -0.9112143             -24.7954
       ...           ...                  ...                  ...
         3        2.0000           -0.4853088             -13.2059
         4        2.0000           -0.4543691             -12.3640
         5        2.0000           -0.3895667             -10.6006
         6        2.0000           -0.3586451              -9.7592
         7        2.0000           -0.3583290              -9.7506
         8        2.0000           -0.3515212              -9.5654
         9        2.0000           -0.3230720              -8.7912
        10        2.0000           -0.3097997              -8.4301
        11        2.0000           -0.2785567              -7.5799
        12        2.0000           -0.2677891              -7.2869
        13        2.0000           -0.2229523              -6.0668
        14        2.0000           -0.2089323              -5.6853
        15        2.0000           -0.1912920              -5.2053 (HOMO)
        16                         -0.0247168              -0.6726 (LUMO)
        17                          0.0284574               0.7744
        18                          0.1645183               4.4768
        19                          0.1723941               4.6911
        20                          0.1743778               4.7451
        21                          0.1754822               4.7751
        22                          0.2493795               6.7860
        23                          0.2983974               8.1198
        24                          0.3330883               9.0638
        25                          0.3548502               9.6560
        26                          0.6000111              16.3271
        27                          0.8915807              24.2611
      -------------------------------------------------------------
                  HL-Gap            0.1665752 Eh            4.5327 eV

     #   Z          covCN         q      C6AA      α(0)
     1   6 C        3.699     0.003    20.691     6.505
     2   6 C        2.680     0.374    20.666     7.439
     3  17 Cl       0.897    -0.272   107.803    15.884
     4   1 H        0.925     0.015     2.817     2.625
     5   1 H        0.925     0.015     2.814     2.623
     6   8 O        0.856    -0.567    25.326     6.747
     7   8 O        0.856    -0.567    25.316     6.746

Wiberg/Mayer (AO) data.
largest (>0.10) Wiberg bond orders for each atom

     #   Z sym  total        # sym  WBO       # sym  WBO       # sym  WBO
 ---------------------------------------------------------------------------
     1   6 C    3.855 --     5 H    0.987     4 H    0.987     3 Cl   0.920
                             2 C    0.827
     2   6 C    3.948 --     7 O    1.555     6 O    1.554     1 C    0.827
     3  17 Cl   0.969 --     1 C    0.920
     4   1 H    1.000 --     1 C    0.987
     5   1 H    1.000 --     1 C    0.987
     6   8 O    1.885 --     2 C    1.554     7 O    0.243
     7   8 O    1.886 --     2 C    1.555     6 O    0.243
 ---------------------------------------------------------------------------

molecular dipole:
                 x           y           z       tot (Debye)
 q only:        1.450       1.666       1.194
   full:        1.734       1.751       1.194       6.960

 projected vibrational frequencies (cm⁻¹)
eigval :       -0.00    -0.00    -0.00     0.00     0.00     0.00
eigval :      -37.67   155.65   383.36   530.18   686.12   771.76
eigval :      778.99   884.58  1115.77  1204.70  1297.96  1415.15
eigval :     1833.36  2963.54  2970.93

   temp. (K)  partition function   enthalpy   heat capacity  entropy
                                   cal/mol     cal/K/mol   cal/K/mol   J/K/mol
 298.15  VIB   2.72                  984.446      8.079      5.287
         ROT  0.131E+06              888.752      2.981     26.403
         INT  0.357E+06             1873.199     11.060     31.690
         TR   0.875E+27             1481.254      4.968     39.499
         TOT                        3354.4526    16.0277    71.1896   297.8574

       T/K    H(0)-H(T)+PV         H(T)/Eh          T*S/Eh         G(T)/Eh
   ------------------------------------------------------------------------
    298.15    0.534566E-02    0.440564E-01    0.338245E-01    0.102319E-01
   ------------------------------------------------------------------------

         :::::::::::::::::::::::::::::::::::::::::::::::::::::
         ::                  THERMODYNAMIC                  ::
         :::::::::::::::::::::::::::::::::::::::::::::::::::::
         :: total free energy         -18.213204549136 Eh   ::
         ::.................................................::
         :: total energy              -18.223436489663 Eh   ::
         :: zero point energy           0.038710773675 Eh   ::
         :: G(RRHO) w/o ZPVE           -0.028478833148 Eh   ::
         :: G(RRHO) contrib.            0.010231940527 Eh   ::
         :::::::::::::::::::::::::::::::::::::::::::::::::::::

           -------------------------------------------------
          | TOTAL ENERGY              -18.223436489663 Eh   |
          | TOTAL ENTHALPY            -18.179380055511 Eh   |
          | TOTAL FREE ENERGY         -18.213204549136 Eh   |
          | GRADIENT NORM               0.010439410858 Eh/α |
          | HOMO-LUMO GAP               4.532742822354 eV   |
           -------------------------------------------------

 * finished run on 2025/10/18 at 21:06:22.442
