                         Program Version 5.0.4 -  RELEASE  -
|  1> !OPT PBE D3BJ def2-TZVP CPCM(water)
|  2>
|  3> *xyz -1 1
|  4> H     -5.141852   -2.527156   -0.913255
|  5> C     -4.206434   -2.397747   -2.921383
|  6> O     -3.013294   -2.169682   -2.402077
|  7> H     -6.768487   -0.749142   -1.182789
|  8> C     -5.191129   -1.979283   -1.851632
|  9> C     -6.099039   -1.003051   -1.993836
| 10> H     -6.152454   -0.434832   -2.914841
| 11> H     -4.488895   -1.876740   -3.849828
| 12> H     -4.486125   -3.434380   -3.167911
| 13> *
| 14>
| 15>                          ****END OF INPUT****
 Total Charge           Charge          ....   -1
 Multiplicity           Mult            ....    1
 Number of Electrons    NEL             ....   32
Dispersion correction           -0.005342099
FINAL SINGLE POINT ENERGY      -192.448223436504
Dispersion correction            ... done
Dispersion correction           -0.005287636
FINAL SINGLE POINT ENERGY      -192.454180910009
Dispersion correction            ... done
Dispersion correction           -0.005273218
FINAL SINGLE POINT ENERGY      -192.454840955367
Dispersion correction            ... done
FINAL SINGLE POINT ENERGY      -192.454946402829
Dispersion correction            ... done
Dispersion correction           -0.005270546
FINAL SINGLE POINT ENERGY      -192.454966805805
Dispersion correction            ... done
Dispersion correction           -0.005270987
FINAL SINGLE POINT ENERGY      -192.454970927782
Dispersion correction            ... done
                    ***********************HURRAY********************

CARTESIAN COORDINATES (ANGSTROEM)
---------------------------------
  H     -5.145622   -2.522780   -0.899958
  C     -4.205110   -2.401391   -2.897740
  O     -2.925104   -2.225121   -2.451521
  H     -6.793521   -0.702182   -1.172784
  C     -5.228770   -1.989958   -1.857477
  C     -6.122200   -0.996877   -1.984078
  H     -6.207172   -0.436980   -2.921785
  H     -4.463471   -1.822683   -3.835978
  H     -4.456740   -3.474041   -3.176231

 Multiplicity           Mult            ....    1
 Number of Electrons    NEL             ....   32
 Basis Dimension        Dim             ....  154

ORBITAL ENERGIES
----------------

  NO   OCC          E(Eh)            E(eV)
   0   2.0000     -18.618276      -506.6290
   1   2.0000      -9.882013      -268.9032
   2   2.0000      -9.862073      -268.3607
   3   2.0000      -9.857307      -268.2309
   4   2.0000      -0.799035       -21.7429
   5   2.0000      -0.670950       -18.2575
   6   2.0000      -0.543627       -14.7928
   7   2.0000      -0.468382       -12.7453
   8   2.0000      -0.389525       -10.5995
   9   2.0000      -0.355233        -9.6664
  10   2.0000      -0.323039        -8.7903
  11   2.0000      -0.287947        -7.8354
  12   2.0000      -0.279982        -7.6187
  13   2.0000      -0.217678        -5.9233
  14   2.0000      -0.132389        -3.6025
  15   2.0000      -0.127672        -3.4741
  16   0.0000      -0.011654        -0.3171
  17   0.0000       0.054289         1.4773
  18   0.0000       0.068062         1.8521
  19   0.0000       0.081555         2.2192
  20   0.0000       0.114192         3.1073

MULLIKEN ATOMIC CHARGES
-----------------------
   0 H :    0.085994
   1 C :    0.004844
   2 O :   -0.822154
   3 H :    0.126325
   4 C :   -0.125623
   5 C :   -0.368550
   6 H :    0.117006
   7 H :   -0.008121
   8 H :   -0.009721
Sum of atomic charges:   -1.0000000

LOEWDIN ATOMIC CHARGES
----------------------
   0 H :    0.127665
   1 C :   -0.539184
   2 O :   -0.445259
   3 H :    0.116893
   4 C :   -0.243363
   5 C :   -0.290225
   6 H :    0.117061
   7 H :    0.079449
   8 H :    0.076963

  Mayer bond orders larger than 0.100000
B(  0-H ,  4-C ) :   0.9461 B(  1-C ,  2-O ) :   1.4264 B(  1-C ,  4-C ) :   0.9576
B(  1-C ,  7-H ) :   0.8978 B(  1-C ,  8-H ) :   0.8926 B(  3-H ,  5-C ) :   0.9496
B(  4-C ,  5-C ) :   1.8894 B(  5-C ,  6-H ) :   0.9466

Dispersion correction           -0.005270992
FINAL SINGLE POINT ENERGY      -192.454971448605

DIPOLE MOMENT
-------------
                                X             Y             Z
Electronic contribution:      1.48800      -0.17136       0.65746
Nuclear contribution   :     -3.92271       0.57819      -0.39481
                        -----------------------------------------
Total Dipole Moment    :     -2.43471       0.40683       0.26265
                        -----------------------------------------
Magnitude (a.u.)       :      2.48240
Magnitude (Debye)      :      6.30975

Rotational constants in cm-1:     0.903370     0.149702     0.146522
Rotational constants in MHz : 27082.359471  4487.966930  4392.626979

                             ****ORCA TERMINATED NORMALLY****
TOTAL RUN TIME: 0 days 0 hours 2 minutes 25 seconds 430 msec
