   * xtb version 6.7.1 (edcfbbe) compiled by 'albert@albert-system' on 2024-07-22

   ID    Z sym.   atoms
    1    6 C      1, 2, 5, 7, 9, 11
    2    8 O      3, 8
    3    1 H      4, 6, 10, 12, 13

          program call               : xtb xyz.xyz --charge -1 --ohess
          :  Hamiltonian                  GFN2-xTB          :
 * total energy  :   -23.7207792 Eh     change       -0.2171312E-09 Eh
 * total energy  :   -23.7235482 Eh     change       -0.2769020E-02 Eh
 * total energy  :   -23.7240148 Eh     change       -0.4665881E-03 Eh
 * total energy  :   -23.7240451 Eh     change       -0.3024150E-04 Eh
 * total energy  :   -23.7240485 Eh     change       -0.3419906E-05 Eh
   *** GEOMETRY OPTIMIZATION CONVERGED AFTER 5 ITERATIONS ***

 final structure:
================
13
 xtb: 6.7.1 (edcfbbe)
C           -6.30437652558826       -3.53815324665499        2.03574822744309
C           -6.03468951723770       -4.02969060030677        0.78453101493971
O           -9.36825979370767       -5.32321614000635        2.90650360529784
H           -7.62871916813370       -3.56962424964664        3.75229234349174
C           -6.87231190534287       -5.00153151451380        0.14648153243687
H           -5.16222836961794       -3.68508549763458        0.24014923825778
C           -8.00096979864950       -5.40374913461205        0.92963222539315
O           -6.64154440696187       -5.46480286614213       -1.00143331194952
C           -8.24951271987875       -4.89640314645558        2.18116000921871
H           -8.67887259517092       -6.14050444007577        0.50337316484333
C           -7.41230119756650       -3.95428403653629        2.76594132340573
H           -5.63786587284373       -2.80065629944865        2.47860588167615
H           -9.82203912930059       -5.96632082796639        2.34968074554543

          :  Hamiltonian                  GFN2-xTB          :
         :: gradient norm              0.000722729298 Eh/a0 ::
         :: HOMO-LUMO gap              3.388045747298 eV    ::
         :: SCC energy               -24.035922323814 Eh    ::
         :: -> dispersion             -0.010820763173 Eh    ::
         :: repulsion energy           0.311873846027 Eh    ::

    * Orbital Energies and Occupations

         #    Occupation            Energy/Eh            Energy/eV
      -------------------------------------------------------------
         1        2.0000           -0.5468981             -14.8819
       ...           ...                  ...                  ...
         9        2.0000           -0.3509294              -9.5493
        10        2.0000           -0.3483322              -9.4786
        11        2.0000           -0.3321344              -9.0378
        12        2.0000           -0.3084002              -8.3920
        13        2.0000           -0.3030000              -8.2450
        14        2.0000           -0.2887257              -7.8566
        15        2.0000           -0.2870613              -7.8113
        16        2.0000           -0.2583243              -7.0294
        17        2.0000           -0.2489503              -6.7743
        18        2.0000           -0.2481027              -6.7512
        19        2.0000           -0.2060269              -5.6063
        20        2.0000           -0.1594612              -4.3392
        21        2.0000           -0.1523997              -4.1470 (HOMO)
        22                         -0.0278913              -0.7590 (LUMO)
        23                         -0.0045800              -0.1246
        24                          0.1085706               2.9544
        25                          0.2167050               5.8968
        26                          0.2783080               7.5731
        27                          0.3092700               8.4157
        28                          0.3224589               8.7746
        29                          0.3628783               9.8744
        30                          0.3718593              10.1188
        31                          0.4451835              12.1141
        32                          0.5618696              15.2892
       ...                                ...                  ...
        37                          0.8754417              23.8220
      -------------------------------------------------------------
                  HL-Gap            0.1245084 Eh            3.3880 eV

     #   Z          covCN         q      C6AA      α(0)
     1   6 C        2.915    -0.050    29.248     8.868
     2   6 C        2.916    -0.108    30.733     9.091
     3   8 O        1.657    -0.458    22.005     6.332
     4   1 H        0.926    -0.020     3.431     2.896
     5   6 C        2.829     0.183    24.089     8.043
     6   1 H        0.925    -0.019     3.402     2.885
     7   6 C        2.916    -0.136    31.482     9.201
     8   8 O        0.857    -0.609    26.332     6.880
     9   6 C        2.841     0.113    25.511     8.277
    10   1 H        0.925    -0.024     3.517     2.933
    11   6 C        2.915    -0.106    30.683     9.083
    12   1 H        0.925    -0.031     3.664     2.993
    13   1 H        0.805     0.266     0.831     1.432

Wiberg/Mayer (AO) data.
largest (>0.10) Wiberg bond orders for each atom

     #   Z sym  total        # sym  WBO       # sym  WBO       # sym  WBO
 ---------------------------------------------------------------------------
     1   6 C    3.987 --     2 C    1.523    11 C    1.381    12 H    0.969
     2   6 C    3.974 --     1 C    1.523     5 C    1.199     6 H    0.972
                             8 O    0.101
     3   8 O    2.026 --     9 C    0.988    13 H    0.908
     4   1 H    1.000 --    11 C    0.972
     5   6 C    3.971 --     8 O    1.473     7 C    1.206     2 C    1.199
     6   1 H    1.000 --     2 C    0.972
     7   6 C    3.957 --     9 C    1.464     5 C    1.206    10 H    0.964
                             8 O    0.112
     8   8 O    1.794 --     5 C    1.473     7 C    0.112     2 C    0.101
     9   6 C    3.913 --     7 C    1.464    11 C    1.349     3 O    0.988
    10   1 H    0.999 --     7 C    0.964
    11   6 C    3.957 --     1 C    1.381     9 C    1.349     4 H    0.972
    12   1 H    0.999 --     1 C    0.969
    13   1 H    0.929 --     3 O    0.908
 ---------------------------------------------------------------------------

molecular dipole:
                 x           y           z       tot (Debye)
 q only:       13.255       9.176      -1.134
   full:       13.124       9.160      -0.988      40.758

 projected vibrational frequencies (cm⁻¹)
eigval :       -0.00    -0.00    -0.00     0.00     0.00     0.00
eigval :      192.89   213.68   325.10   384.72   423.80   471.53
eigval :      494.19   514.84   589.66   654.06   740.71   744.51
eigval :      781.82   827.43   903.56   956.88   979.38  1102.01
eigval :     1143.81  1169.54  1191.41  1245.08  1294.45  1395.73
eigval :     1478.10  1533.29  1569.08  1634.58  2963.62  2979.18
eigval :     3021.66  3058.65  3527.81

   temp. (K)  partition function   enthalpy   heat capacity  entropy
                                   cal/mol     cal/K/mol   cal/K/mol   J/K/mol
 298.15  VIB   7.64                 2331.016     19.735     11.860
         ROT  0.287E+06              888.752      2.981     27.957
         INT  0.219E+07             3219.768     22.716     39.816
         TR   0.110E+28             1481.254      4.968     39.960
         TOT                        4701.0223    27.6837    79.7759   333.7824

       T/K    H(0)-H(T)+PV         H(T)/Eh          T*S/Eh         G(T)/Eh
   ------------------------------------------------------------------------
    298.15    0.749156E-02    0.997727E-01    0.379041E-01    0.618686E-01
   ------------------------------------------------------------------------

         :::::::::::::::::::::::::::::::::::::::::::::::::::::
         ::                  THERMODYNAMIC                  ::
         :::::::::::::::::::::::::::::::::::::::::::::::::::::
         :: total free energy         -23.662179889837 Eh   ::
         ::.................................................::
         :: total energy              -23.724048477789 Eh   ::
         :: zero point energy           0.092281136916 Eh   ::
         :: G(RRHO) w/o ZPVE           -0.030412548964 Eh   ::
         :: G(RRHO) contrib.            0.061868587952 Eh   ::
         :::::::::::::::::::::::::::::::::::::::::::::::::::::

           -------------------------------------------------
          | TOTAL ENERGY              -23.724048477789 Eh   |
          | TOTAL ENTHALPY            -23.624275785046 Eh   |
          | TOTAL FREE ENERGY         -23.662179889837 Eh   |
          | GRADIENT NORM               0.000722779400 Eh/α |
          | HOMO-LUMO GAP               3.388045563683 eV   |
           -------------------------------------------------

 * finished run on 2025/10/18 at 02:58:06.817
