   * xtb version 6.7.1 (edcfbbe) compiled by 'albert@albert-system' on 2024-07-22

   ID    Z sym.   atoms
    1    6 C      1, 2, 4, 6, 8, 10, 12
    2    1 H      3, 5, 7, 9, 11, 13, 14
    3    8 O      15

          program call               : xtb xyz.xyz --charge -1 --ohess
          :  Hamiltonian                  GFN2-xTB          :
 * total energy  :   -22.7576252 Eh     change       -0.7372414E-09 Eh
 * total energy  :   -22.7624754 Eh     change       -0.4850164E-02 Eh
 * total energy  :   -22.7631897 Eh     change       -0.7143443E-03 Eh
 * total energy  :   -22.7633704 Eh     change       -0.1806390E-03 Eh
 * total energy  :   -22.7635060 Eh     change       -0.1355908E-03 Eh
 * total energy  :   -22.7635753 Eh     change       -0.6929090E-04 Eh
 * total energy  :   -22.7636059 Eh     change       -0.3065161E-04 Eh
 * total energy  :   -22.7636183 Eh     change       -0.1239056E-04 Eh
 * total energy  :   -22.7636254 Eh     change       -0.7130348E-05 Eh
 * total energy  :   -22.7636288 Eh     change       -0.3403960E-05 Eh
   *** GEOMETRY OPTIMIZATION CONVERGED AFTER 10 ITERATIONS ***

 final structure:
================
15
 xtb: 6.7.1 (edcfbbe)
C           -4.20803080108038       -4.17033584044503       -3.21424819918928
C           -2.90158977883558       -4.61540914407284       -3.23894907681122
H           -3.80242301678276       -1.38813381479596       -1.35915584739810
C           -4.56666320449470       -3.00256871173019       -2.53644847998337
H           -4.97786793302286       -4.72949371407885       -3.73120855437513
C           -1.90656611577954       -3.90775283326161       -2.58050058607572
H           -2.64988604698620       -5.53136459362343       -3.76440614056911
C           -2.24231540499878       -2.74156373625684       -1.90763965306650
H           -0.88172553886428       -4.26144089947292       -2.59019965177567
C           -3.54964602533041       -2.29990090245199       -1.88552909570795
H           -1.47152037481543       -2.18312811324877       -1.38572800268275
C           -5.93839263518720       -2.38242507981446       -2.72584023384934
H           -6.70684018244505       -3.21986524884660       -2.80253749824375
H           -6.21903717651870       -1.82519544932338       -1.77142392832955
O           -5.84777876485813       -1.61969291857712       -3.80135905194256

          :  Hamiltonian                  GFN2-xTB          :
         :: gradient norm              0.000708669189 Eh/a0 ::
         :: HOMO-LUMO gap              1.548522337630 eV    ::
         :: SCC energy               -23.107853129550 Eh    ::
         :: -> dispersion             -0.012885015422 Eh    ::
         :: repulsion energy           0.344224296250 Eh    ::

    * Orbital Energies and Occupations

         #    Occupation            Energy/Eh            Energy/eV
      -------------------------------------------------------------
         1        2.0000           -0.4871783             -13.2568
       ...           ...                  ...                  ...
         9        2.0000           -0.3450852              -9.3902
        10        2.0000           -0.3378994              -9.1947
        11        2.0000           -0.3284653              -8.9380
        12        2.0000           -0.3207511              -8.7281
        13        2.0000           -0.3104074              -8.4466
        14        2.0000           -0.2877977              -7.8314
        15        2.0000           -0.2774228              -7.5491
        16        2.0000           -0.2642688              -7.1911
        17        2.0000           -0.2532263              -6.8906
        18        2.0000           -0.2491123              -6.7787
        19        2.0000           -0.2272920              -6.1849
        20        2.0000           -0.1239588              -3.3731
        21        2.0000           -0.1231815              -3.3519 (HOMO)
        22                         -0.0662742              -1.8034 (LUMO)
        23                         -0.0604696              -1.6455
        24                          0.0641313               1.7451
        25                          0.2544151               6.9230
        26                          0.2643034               7.1921
        27                          0.2896071               7.8806
        28                          0.3136198               8.5340
        29                          0.3200877               8.7100
        30                          0.3394631               9.2373
        31                          0.3520761               9.5805
        32                          0.3596764               9.7873
       ...                                ...                  ...
        39                          0.8071912              21.9648
      -------------------------------------------------------------
                  HL-Gap            0.0569073 Eh            1.5485 eV

     #   Z          covCN         q      C6AA      α(0)
     1   6 C        2.924    -0.037    28.910     8.818
     2   6 C        2.917    -0.043    29.067     8.841
     3   1 H        0.925     0.006     2.959     2.690
     4   6 C        2.966     0.001    27.998     8.679
     5   1 H        0.925     0.005     2.976     2.698
     6   6 C        2.918    -0.057    29.426     8.895
     7   1 H        0.925    -0.015     3.339     2.857
     8   6 C        2.917    -0.043    29.070     8.841
     9   1 H        0.925    -0.020     3.423     2.893
    10   6 C        2.924    -0.036    28.888     8.814
    11   1 H        0.925    -0.015     3.336     2.856
    12   6 C        3.665     0.181    17.945     6.076
    13   1 H        0.915    -0.104     5.705     3.736
    14   1 H        0.915    -0.105     5.731     3.744
    15   8 O        0.860    -0.718    29.215     7.247

Wiberg/Mayer (AO) data.
largest (>0.10) Wiberg bond orders for each atom

     #   Z sym  total        # sym  WBO       # sym  WBO       # sym  WBO
 ---------------------------------------------------------------------------
     1   6 C    3.991 --     2 C    1.467     4 C    1.367     5 H    0.970
     2   6 C    3.990 --     1 C    1.467     6 C    1.416     7 H    0.971
     3   1 H    1.000 --    10 C    0.970
     4   6 C    3.944 --     1 C    1.367    10 C    1.366    12 C    0.951
                            15 O    0.132
     5   1 H    1.000 --     1 C    0.970
     6   6 C    3.985 --     2 C    1.416     8 C    1.414     9 H    0.972
     7   1 H    0.999 --     2 C    0.971
     8   6 C    3.990 --    10 C    1.468     6 C    1.414    11 H    0.971
     9   1 H    0.999 --     6 C    0.972
    10   6 C    3.991 --     8 C    1.468     4 C    1.366     3 H    0.970
    11   1 H    0.999 --     8 C    0.971
    12   6 C    3.982 --    15 O    1.146     4 C    0.951    13 H    0.925
                            14 H    0.925
    13   1 H    0.989 --    12 C    0.925
    14   1 H    0.989 --    12 C    0.925
    15   8 O    1.518 --    12 C    1.146     4 C    0.132
 ---------------------------------------------------------------------------

molecular dipole:
                 x           y           z       tot (Debye)
 q only:        9.663       4.159       6.367
   full:        9.736       3.975       6.577      31.527

 projected vibrational frequencies (cm⁻¹)
eigval :       -0.00    -0.00    -0.00    -0.00     0.00     0.00
eigval :       85.55   119.09   272.32   312.25   355.59   462.81
eigval :      532.06   589.45   653.78   738.65   794.31   858.11
eigval :      862.16   911.48   912.01   976.32   994.40  1078.99
eigval :     1121.04  1128.33  1182.53  1197.43  1213.16  1222.20
eigval :     1293.70  1335.67  1344.23  1440.10  1466.66  1507.61
eigval :     1558.45  1590.32  2262.38  2423.06  2997.31  3000.44
eigval :     3024.02  3044.82  3049.53

   temp. (K)  partition function   enthalpy   heat capacity  entropy
                                   cal/mol     cal/K/mol   cal/K/mol   J/K/mol
 298.15  VIB   22.9                 2578.289     19.884     14.776
         ROT  0.277E+06              888.752      2.981     27.887
         INT  0.634E+07             3467.041     22.865     42.663
         TR   0.107E+28             1481.254      4.968     39.905
         TOT                        4948.2952    27.8330    82.5681   345.4649

       T/K    H(0)-H(T)+PV         H(T)/Eh          T*S/Eh         G(T)/Eh
   ------------------------------------------------------------------------
    298.15    0.788561E-02    0.121594E+00    0.392308E-01    0.823636E-01
   ------------------------------------------------------------------------

         :::::::::::::::::::::::::::::::::::::::::::::::::::::
         ::                  THERMODYNAMIC                  ::
         :::::::::::::::::::::::::::::::::::::::::::::::::::::
         :: total free energy         -22.681265265450 Eh   ::
         ::.................................................::
         :: total energy              -22.763628833301 Eh   ::
         :: zero point energy           0.113708728204 Eh   ::
         :: G(RRHO) w/o ZPVE           -0.031345160352 Eh   ::
         :: G(RRHO) contrib.            0.082363567852 Eh   ::
         :::::::::::::::::::::::::::::::::::::::::::::::::::::

           -------------------------------------------------
          | TOTAL ENERGY              -22.763628833301 Eh   |
          | TOTAL ENTHALPY            -22.642034494788 Eh   |
          | TOTAL FREE ENERGY         -22.681265265450 Eh   |
          | GRADIENT NORM               0.000708797948 Eh/α |
          | HOMO-LUMO GAP               1.548525122416 eV   |
           -------------------------------------------------

 * finished run on 2025/10/18 at 01:12:34.390
