   * xtb version 6.7.1 (edcfbbe) compiled by 'albert@albert-system' on 2024-07-22

   ID    Z sym.   atoms
    1    6 C      1, 2, 6
    2    8 O      3-5
    3    1 H      7-9

          program call               : xtb xyz.xyz --alpb water --charge -1 --ohess
      * Solvation model:               ALPB
        Solvent                        water
        Solvent mass                       1.8000E+01 g/mol
          :  Hamiltonian                  GFN2-xTB          :
 * total energy  :   -20.4652877 Eh     change       -0.1145892E-09 Eh
 * total energy  :   -20.4681276 Eh     change       -0.2839885E-02 Eh
 * total energy  :   -20.4683757 Eh     change       -0.2481002E-03 Eh
 * total energy  :   -20.4683954 Eh     change       -0.1965169E-04 Eh
 * total energy  :   -20.4685209 Eh     change       -0.1255548E-03 Eh
 * total energy  :   -20.4685261 Eh     change       -0.5223313E-05 Eh
 * total energy  :   -20.4685278 Eh     change       -0.1658295E-05 Eh
   *** GEOMETRY OPTIMIZATION CONVERGED AFTER 7 ITERATIONS ***

 final structure:
================
9
 xtb: 6.7.1 (edcfbbe)
C           -5.29916707105864       -3.61459855841933        0.51536723119188
C           -6.45226557803259       -4.15675400673357        1.29920259572241
O           -8.35597298052653       -5.59322559918368        1.17511646160450
O           -6.65015191848518       -3.88994112884698        2.47123382313267
O           -7.16480022179216       -5.28338684884089       -0.68987919204391
C           -7.41943612089309       -5.10435873078815        0.51652087602168
H           -4.65734202846974       -3.00511402937567        1.14455599170937
H           -4.75664234348814       -4.45106129104207        0.08191717002855
H           -5.70082273725393       -3.03620380676966       -0.31379695736716

          :  Hamiltonian                  GFN2-xTB          :
         :: gradient norm              0.000515305095 Eh/a0 ::
         :: HOMO-LUMO gap              2.134214000118 eV    ::
         :: SCC energy               -20.637100998473 Eh    ::
         :: -> dispersion             -0.005220495691 Eh    ::
         :: -> Gsolv                  -0.108975725180 Eh    ::
         :: repulsion energy           0.168573208824 Eh    ::

    * Orbital Energies and Occupations

         #    Occupation            Energy/Eh            Energy/eV
      -------------------------------------------------------------
         1        2.0000           -0.7135202             -19.4159
       ...           ...                  ...                  ...
         5        2.0000           -0.6003175             -16.3355
         6        2.0000           -0.5649869             -15.3741
         7        2.0000           -0.5454651             -14.8429
         8        2.0000           -0.5418287             -14.7439
         9        2.0000           -0.5220941             -14.2069
        10        2.0000           -0.5062136             -13.7748
        11        2.0000           -0.4915856             -13.3767
        12        2.0000           -0.4730165             -12.8714
        13        2.0000           -0.4722497             -12.8506
        14        2.0000           -0.4375482             -11.9063
        15        2.0000           -0.4074685             -11.0878
        16        2.0000           -0.3913512             -10.6492
        17        2.0000           -0.3547796              -9.6540 (HOMO)
        18                         -0.2763487              -7.5198 (LUMO)
        19                         -0.1502745              -4.0892
        20                          0.0769282               2.0933
        21                          0.1649177               4.4876
        22                          0.1919082               5.2221
        23                          0.2155586               5.8656
        24                          0.2408652               6.5543
        25                          0.4125226              11.2253
        26                          0.5002732              13.6131
        27                          0.7050127              19.1844
      -------------------------------------------------------------
                  HL-Gap            0.0784309 Eh            2.1342 eV

     #   Z          covCN         q      C6AA      α(0)
     1   6 C        3.753    -0.143    23.311     6.885
     2   6 C        2.805     0.193    23.874     8.005
     3   8 O        0.856    -0.621    26.646     6.921
     4   8 O        0.856    -0.423    22.154     6.311
     5   8 O        0.856    -0.619    26.582     6.912
     6   6 C        2.683     0.344    21.151     7.526
     7   1 H        0.925     0.082     1.956     2.187
     8   1 H        0.925     0.091     1.866     2.136
     9   1 H        0.925     0.095     1.835     2.118

Wiberg/Mayer (AO) data.
largest (>0.10) Wiberg bond orders for each atom

     #   Z sym  total        # sym  WBO       # sym  WBO       # sym  WBO
 ---------------------------------------------------------------------------
     1   6 C    3.990 --     2 C    1.030     7 H    0.980     8 H    0.950
                             9 H    0.945
     2   6 C    3.862 --     4 O    1.827     1 C    1.030     6 C    0.867
     3   8 O    1.830 --     6 C    1.508     5 O    0.239
     4   8 O    2.020 --     2 C    1.827
     5   8 O    1.819 --     6 C    1.501     3 O    0.239
     6   6 C    3.937 --     3 O    1.508     5 O    1.501     2 C    0.867
     7   1 H    0.993 --     1 C    0.980
     8   1 H    0.992 --     1 C    0.950
     9   1 H    0.991 --     1 C    0.945
 ---------------------------------------------------------------------------

molecular dipole:
                 x           y           z       tot (Debye)
 q only:       15.185      10.211      -1.743
   full:       15.251      10.251      -1.768      46.923

 projected vibrational frequencies (cm⁻¹)
eigval :       -0.00    -0.00    -0.00     0.00     0.00     0.00
eigval :      -55.10    49.31   226.62   344.17   374.34   524.48
eigval :      611.74   699.38   771.96   954.19   977.38  1155.29
eigval :     1315.42  1338.36  1412.85  1425.57  1679.77  1710.71
eigval :     3024.11  3034.55  3051.09

   temp. (K)  partition function   enthalpy   heat capacity  entropy
                                   cal/mol     cal/K/mol   cal/K/mol   J/K/mol
 298.15  VIB   13.1                 1733.099     11.727     10.268
         ROT  0.127E+06              888.752      2.981     26.332
         INT  0.167E+07             2621.851     14.708     36.600
         TR   0.786E+27             1481.254      4.968     39.287
         TOT                        4103.1053    19.6759    75.8872   317.5120

       T/K    H(0)-H(T)+PV         H(T)/Eh          T*S/Eh         G(T)/Eh
   ------------------------------------------------------------------------
    298.15    0.653871E-02    0.627668E-01    0.360565E-01    0.267104E-01
   ------------------------------------------------------------------------

         :::::::::::::::::::::::::::::::::::::::::::::::::::::
         ::                  THERMODYNAMIC                  ::
         :::::::::::::::::::::::::::::::::::::::::::::::::::::
         :: total free energy         -20.441817398079 Eh   ::
         ::.................................................::
         :: total energy              -20.468527788642 Eh   ::
         :: zero point energy           0.056228131006 Eh   ::
         :: G(RRHO) w/o ZPVE           -0.029517740443 Eh   ::
         :: G(RRHO) contrib.            0.026710390563 Eh   ::
         :::::::::::::::::::::::::::::::::::::::::::::::::::::

           -------------------------------------------------
          | TOTAL ENERGY              -20.468527788642 Eh   |
          | TOTAL ENTHALPY            -20.405760943100 Eh   |
          | TOTAL FREE ENERGY         -20.441817398079 Eh   |
          | GRADIENT NORM               0.000515333056 Eh/α |
          | HOMO-LUMO GAP               2.134213640835 eV   |
           -------------------------------------------------

 * finished run on 2025/10/18 at 03:51:58.814
