   * xtb version 6.7.1 (edcfbbe) compiled by 'albert@albert-system' on 2024-07-22

   ID    Z sym.   atoms
    1    6 C      1, 2, 5
    2    8 O      3
    3    1 H      4, 6-11

          program call               : xtb xyz.xyz --alpb water --charge -1 --ohess
      * Solvation model:               ALPB
        Solvent                        water
        Solvent mass                       1.8000E+01 g/mol
          :  Hamiltonian                  GFN2-xTB          :
 * total energy  :   -14.3153338 Eh     change       -0.2754650E-09 Eh
 * total energy  :   -14.3188936 Eh     change       -0.3559837E-02 Eh
 * total energy  :   -14.3192759 Eh     change       -0.3822618E-03 Eh
 * total energy  :   -14.3193194 Eh     change       -0.4349314E-04 Eh
 * total energy  :   -14.3193281 Eh     change       -0.8687147E-05 Eh
 * total energy  :   -14.3193325 Eh     change       -0.4412835E-05 Eh
   *** GEOMETRY OPTIMIZATION CONVERGED AFTER 6 ITERATIONS ***

 final structure:
================
11
 xtb: 6.7.1 (edcfbbe)
C           -3.71011536668742       -3.99988763816150       -2.65610561804106
C           -4.23665909911845       -2.61555210961729       -3.14458787788818
O           -3.28510616226617       -1.67817084230993       -3.24016846642971
H           -6.19659615685173       -2.98064974903983       -2.22781100351254
C           -5.42326106997339       -2.21581058192728       -2.21489700198901
H           -4.71281900436799       -2.81811303643552       -4.17458441531386
H           -5.83752915661037       -1.26920253661202       -2.55488305187739
H           -5.04723587930333       -2.08423894182240       -1.20238754626220
H           -3.31304630523383       -3.88917878135370       -1.64915904490105
H           -4.50832948778557       -4.73880168251749       -2.66183332869580
H           -2.90457231180175       -4.32470210020305       -3.31097664508919

          :  Hamiltonian                  GFN2-xTB          :
         :: gradient norm              0.000711590038 Eh/a0 ::
         :: HOMO-LUMO gap             11.055652412164 eV    ::
         :: SCC energy               -14.467732749841 Eh    ::
         :: -> dispersion             -0.005698693219 Eh    ::
         :: -> Gsolv                  -0.118117176240 Eh    ::
         :: repulsion energy           0.148400273980 Eh    ::

    * Orbital Energies and Occupations

         #    Occupation            Energy/Eh            Energy/eV
      -------------------------------------------------------------
         1        2.0000           -0.5942366             -16.1700
         2        2.0000           -0.5770389             -15.7020
         3        2.0000           -0.5699768             -15.5099
         4        2.0000           -0.5257696             -14.3069
         5        2.0000           -0.4881181             -13.2824
         6        2.0000           -0.4727000             -12.8628
         7        2.0000           -0.4653057             -12.6616
         8        2.0000           -0.4514092             -12.2835
         9        2.0000           -0.4262135             -11.5979
        10        2.0000           -0.4255497             -11.5798
        11        2.0000           -0.4055880             -11.0366
        12        2.0000           -0.2945637              -8.0155
        13        2.0000           -0.2941821              -8.0051 (HOMO)
        14                          0.1121056               3.0505 (LUMO)
        15                          0.1192201               3.2441
        16                          0.1364067               3.7118
        17                          0.1608214               4.3762
        18                          0.1933817               5.2622
        19                          0.2002163               5.4482
        20                          0.2440573               6.6411
        21                          0.2552585               6.9459
        22                          0.2655457               7.2259
        23                          0.3675266              10.0009
      -------------------------------------------------------------
                  HL-Gap            0.4062877 Eh           11.0557 eV

     #   Z          covCN         q      C6AA      α(0)
     1   6 C        3.749    -0.105    22.570     6.776
     2   6 C        3.707     0.178    17.887     6.045
     3   8 O        0.855    -0.885    34.277     7.849
     4   1 H        0.925     0.008     2.916     2.670
     5   6 C        3.749    -0.105    22.570     6.776
     6   1 H        0.911    -0.142     7.286     4.222
     7   1 H        0.925     0.009     2.914     2.670
     8   1 H        0.925     0.012     2.853     2.642
     9   1 H        0.925     0.012     2.854     2.642
    10   1 H        0.925     0.008     2.915     2.670
    11   1 H        0.925     0.009     2.914     2.670

Wiberg/Mayer (AO) data.
largest (>0.10) Wiberg bond orders for each atom

     #   Z sym  total        # sym  WBO       # sym  WBO       # sym  WBO
 ---------------------------------------------------------------------------
     1   6 C    3.994 --    11 H    0.991     9 H    0.990    10 H    0.990
                             2 C    0.958
     2   6 C    3.977 --     3 O    1.148     5 C    0.958     1 C    0.958
                             6 H    0.915
     3   8 O    1.313 --     2 C    1.148
     4   1 H    1.000 --     5 C    0.990
     5   6 C    3.994 --     7 H    0.991     8 H    0.990     4 H    0.990
                             2 C    0.958
     6   1 H    0.980 --     2 C    0.915
     7   1 H    1.000 --     5 C    0.991
     8   1 H    1.000 --     5 C    0.990
     9   1 H    1.000 --     1 C    0.990
    10   1 H    1.000 --     1 C    0.990
    11   1 H    1.000 --     1 C    0.991
 ---------------------------------------------------------------------------

molecular dipole:
                 x           y           z       tot (Debye)
 q only:        6.636       3.562       6.206
   full:        6.431       3.362       6.217      24.288

 projected vibrational frequencies (cm⁻¹)
eigval :       -0.00    -0.00     0.00     0.00     0.00     0.00
eigval :      180.37   226.71   362.40   421.96   503.86   817.55
eigval :      873.84   915.97   977.18  1064.38  1116.07  1160.01
eigval :     1308.15  1348.51  1352.43  1372.60  1478.20  1486.01
eigval :     1504.11  1514.05  2136.76  2988.29  2994.35  3004.55
eigval :     3008.93  3017.55  3019.85

   temp. (K)  partition function   enthalpy   heat capacity  entropy
                                   cal/mol     cal/K/mol   cal/K/mol   J/K/mol
 298.15  VIB   4.27                 1458.052     11.548      7.777
         ROT  0.455E+05              888.752      2.981     24.295
         INT  0.194E+06             2346.804     14.529     32.071
         TR   0.439E+27             1481.254      4.968     38.132
         TOT                        3828.0584    19.4971    70.2036   293.7317

       T/K    H(0)-H(T)+PV         H(T)/Eh          T*S/Eh         G(T)/Eh
   ------------------------------------------------------------------------
    298.15    0.610040E-02    0.975794E-01    0.333560E-01    0.642234E-01
   ------------------------------------------------------------------------

         :::::::::::::::::::::::::::::::::::::::::::::::::::::
         ::                  THERMODYNAMIC                  ::
         :::::::::::::::::::::::::::::::::::::::::::::::::::::
         :: total free energy         -14.255109070354 Eh   ::
         ::.................................................::
         :: total energy              -14.319332476270 Eh   ::
         :: zero point energy           0.091478986831 Eh   ::
         :: G(RRHO) w/o ZPVE           -0.027255580916 Eh   ::
         :: G(RRHO) contrib.            0.064223405915 Eh   ::
         :::::::::::::::::::::::::::::::::::::::::::::::::::::

           -------------------------------------------------
          | TOTAL ENERGY              -14.319332476270 Eh   |
          | TOTAL ENTHALPY            -14.221753090109 Eh   |
          | TOTAL FREE ENERGY         -14.255109070354 Eh   |
          | GRADIENT NORM               0.000711588337 Eh/α |
          | HOMO-LUMO GAP              11.055652199189 eV   |
           -------------------------------------------------

 * finished run on 2025/10/18 at 00:54:17.013
