                         Program Version 5.0.4 -  RELEASE  -
|  1> !SP HF def2-SVP CPCM(water)
|  2>
|  3> *xyz -1 1
|  4> 35 0 0 0
|  5> *
|  6>
|  7>                          ****END OF INPUT****

CARTESIAN COORDINATES (ANGSTROEM)
---------------------------------
  Br     0.000000    0.000000    0.000000

 Total Charge           Charge          ....   -1
 Multiplicity           Mult            ....    1
 Number of Electrons    NEL             ....   36
 Basis Dimension        Dim             ....   32

ORBITAL ENERGIES
----------------

  NO   OCC          E(Eh)            E(eV)
   0   2.0000    -489.846148    -13329.3914
   1   2.0000     -65.013606     -1769.1102
   2   2.0000     -58.384995     -1588.7365
   3   2.0000     -58.384995     -1588.7365
   4   2.0000     -58.384995     -1588.7365
   5   2.0000      -9.702889      -264.0290
   6   2.0000      -7.314148      -199.0281
   7   2.0000      -7.314148      -199.0281
   8   2.0000      -7.314148      -199.0281
   9   2.0000      -3.055445       -83.1429
  10   2.0000      -3.055445       -83.1429
  11   2.0000      -3.055445       -83.1429
  12   2.0000      -3.055445       -83.1429
  13   2.0000      -3.055445       -83.1429
  14   2.0000      -0.869819       -23.6690
  15   2.0000      -0.330017        -8.9802
  16   2.0000      -0.330017        -8.9802
  17   2.0000      -0.330017        -8.9802
  18   0.0000       0.530834        14.4447
  19   0.0000       0.830925        22.6106
  20   0.0000       0.830925        22.6106
  21   0.0000       0.830926        22.6106
  22   0.0000       0.830926        22.6106

MULLIKEN ATOMIC CHARGES
-----------------------
   0 Br:   -1.000000
Sum of atomic charges:   -1.0000000

LOEWDIN ATOMIC CHARGES
----------------------
   0 Br:   -1.000000

FINAL SINGLE POINT ENERGY     -2572.264577807684

DIPOLE MOMENT
-------------
                                X             Y             Z
Electronic contribution:      0.00000      -0.00000      -0.00000
Nuclear contribution   :      0.00000       0.00000       0.00000
                        -----------------------------------------
Total Dipole Moment    :      0.00000      -0.00000      -0.00000
                        -----------------------------------------
Magnitude (a.u.)       :      0.00000
Magnitude (Debye)      :      0.00000

Rotational constants in cm-1:     0.000000     0.000000     0.000000
Rotational constants in MHz :     0.000000     0.000000     0.000000

                             ****ORCA TERMINATED NORMALLY****
TOTAL RUN TIME: 0 days 0 hours 0 minutes 8 seconds 889 msec
