                         Program Version 5.0.4 -  RELEASE  -
|  1> ! OPT PBE D3BJ def2-TZVP CPCM(water)
|  2>
|  3> * xyz -1 1
|  4> C     -3.147823    2.367648   -0.000010
|  5> O     -3.351248    3.610852    0.000002
|  6> O     -2.076288    1.705315   -0.000006
|  7> H     -4.097286    1.732389   -0.000027
|  8> *
|  9>
| 10>                          ****END OF INPUT****
 Total Charge           Charge          ....   -1
 Multiplicity           Mult            ....    1
 Number of Electrons    NEL             ....   24
Dispersion correction           -0.001380855
FINAL SINGLE POINT ENERGY      -189.194903511982
Dispersion correction            ... done
Dispersion correction           -0.001381145
FINAL SINGLE POINT ENERGY      -189.195213033940
Dispersion correction            ... done
Dispersion correction           -0.001381312
FINAL SINGLE POINT ENERGY      -189.195302093483
Dispersion correction            ... done
Dispersion correction           -0.001381270
FINAL SINGLE POINT ENERGY      -189.195302804895
Dispersion correction            ... done
                    ***********************HURRAY********************

CARTESIAN COORDINATES (ANGSTROEM)
---------------------------------
  C     -3.160795    2.358851   -0.000010
  O     -3.336442    3.608949    0.000002
  O     -2.072464    1.719784   -0.000006
  H     -4.102944    1.728620   -0.000027

 Multiplicity           Mult            ....    1
 Number of Electrons    NEL             ....   24
 Basis Dimension        Dim             ....   99

ORBITAL ENERGIES
----------------

  NO   OCC          E(Eh)            E(eV)
   0   2.0000     -18.679933      -508.3068
   1   2.0000     -18.679929      -508.3067
   2   2.0000      -9.940151      -270.4853
   3   2.0000      -0.915238       -24.9049
   4   2.0000      -0.835912       -22.7463
   5   2.0000      -0.467037       -12.7087
   6   2.0000      -0.370477       -10.0812
   7   2.0000      -0.340284        -9.2596
   8   2.0000      -0.329831        -8.9752
   9   2.0000      -0.206681        -5.6241
  10   2.0000      -0.184093        -5.0094
  11   2.0000      -0.183423        -4.9912
  12   0.0000       0.022947         0.6244
  13   0.0000       0.087623         2.3843
  14   0.0000       0.108011         2.9391
  15   0.0000       0.147057         4.0016
  16   0.0000       0.203478         5.5369

MULLIKEN ATOMIC CHARGES
-----------------------
   0 C :    0.087244
   1 O :   -0.524752
   2 O :   -0.524163
   3 H :   -0.038329
Sum of atomic charges:   -1.0000000

LOEWDIN ATOMIC CHARGES
----------------------
   0 C :   -0.717252
   1 O :   -0.162830
   2 O :   -0.162141
   3 H :    0.042223

  Mayer bond orders larger than 0.100000
B(  0-C ,  1-O ) :   1.8001 B(  0-C ,  2-O ) :   1.8008 B(  0-C ,  3-H ) :   0.9616

Dispersion correction           -0.001381255
FINAL SINGLE POINT ENERGY      -189.195302861763

DIPOLE MOMENT
-------------
                                X             Y             Z
Electronic contribution:      0.59352       0.39484       0.00001
Nuclear contribution   :     -1.16390      -0.77873      -0.00002
                        -----------------------------------------
Total Dipole Moment    :     -0.57038      -0.38390      -0.00001
                        -----------------------------------------
Magnitude (a.u.)       :      0.68754
Magnitude (Debye)      :      1.74759

Rotational constants in cm-1:     3.406285     0.407878     0.364261
Rotational constants in MHz : 102117.861632 12227.879823 10920.257492

                             ****ORCA TERMINATED NORMALLY****
TOTAL RUN TIME: 0 days 0 hours 0 minutes 57 seconds 418 msec
