                         Program Version 5.0.4 -  RELEASE  -
|  1> !OPT PBE D3BJ def2-TZVP CPCM(water)
|  2>
|  3> *xyz -1 1
|  4> N     -6.637576   -2.953975    3.328416
|  5> C     -5.521338   -2.625639    2.514529
|  6> H     -5.739588   -2.620117    1.462929
|  7> O     -7.719825   -3.098383    2.753622
|  8> H     -4.590453   -2.594577    3.049349
|  9> O     -6.427343   -3.066934    4.538968
| 10> *
| 11>
| 12>                          ****END OF INPUT****
 Total Charge           Charge          ....   -1
 Multiplicity           Mult            ....    1
 Number of Electrons    NEL             ....   32
Dispersion correction           -0.002989322
FINAL SINGLE POINT ENERGY      -244.379635902438
Dispersion correction            ... done
Dispersion correction           -0.002976845
FINAL SINGLE POINT ENERGY      -244.389847911660
Dispersion correction            ... done
Dispersion correction           -0.002973181
FINAL SINGLE POINT ENERGY      -244.391497625365
Dispersion correction            ... done
FINAL SINGLE POINT ENERGY      -244.392536095929
FINAL SINGLE POINT ENERGY      -244.393849730385
FINAL SINGLE POINT ENERGY      -244.393986411397
FINAL SINGLE POINT ENERGY      -244.394025222322
Dispersion correction            ... done
Dispersion correction           -0.002968159
FINAL SINGLE POINT ENERGY      -244.394041569709
Dispersion correction            ... done
Dispersion correction           -0.002967909
FINAL SINGLE POINT ENERGY      -244.394042134455
Dispersion correction            ... done
                    ***********************HURRAY********************

CARTESIAN COORDINATES (ANGSTROEM)
---------------------------------
  N     -6.594616   -2.952022    3.297269
  C     -5.537213   -2.681622    2.527103
  H     -5.693341   -2.590911    1.457173
  O     -7.772609   -3.100628    2.778377
  H     -4.571222   -2.562473    3.006606
  O     -6.467122   -3.071968    4.581285

 Multiplicity           Mult            ....    1
 Number of Electrons    NEL             ....   32
 Basis Dimension        Dim             ....  136

ORBITAL ENERGIES
----------------

  NO   OCC          E(Eh)            E(eV)
   0   2.0000     -18.694805      -508.7115
   1   2.0000     -18.694800      -508.7114
   2   2.0000     -14.126097      -384.3906
   3   2.0000      -9.864360      -268.4229
   4   2.0000      -1.022782       -27.8313
   5   2.0000      -0.855756       -23.2863
   6   2.0000      -0.695308       -18.9203
   7   2.0000      -0.487846       -13.2750
   8   2.0000      -0.413264       -11.2455
   9   2.0000      -0.411023       -11.1845
  10   2.0000      -0.399317       -10.8660
  11   2.0000      -0.337508        -9.1841
  12   2.0000      -0.211718        -5.7611
  13   2.0000      -0.205030        -5.5792
  14   2.0000      -0.173676        -4.7260
  15   2.0000      -0.155726        -4.2375
  16   0.0000      -0.017676        -0.4810
  17   0.0000       0.074163         2.0181
  18   0.0000       0.105554         2.8723
  19   0.0000       0.119150         3.2422
  20   0.0000       0.152522         4.1503

MULLIKEN ATOMIC CHARGES
-----------------------
   0 N :    0.354041
   1 C :   -0.464757
   2 H :    0.135172
   3 O :   -0.579614
   4 H :    0.135002
   5 O :   -0.579844
Sum of atomic charges:   -1.0000000

LOEWDIN ATOMIC CHARGES
----------------------
   0 N :   -0.115997
   1 C :   -0.444176
   2 H :    0.103086
   3 O :   -0.322868
   4 H :    0.103055
   5 O :   -0.323099

  Mayer bond orders larger than 0.100000
B(  0-N ,  1-C ) :   1.4669 B(  0-N ,  3-O ) :   1.3197 B(  0-N ,  5-O ) :   1.3191
B(  1-C ,  2-H ) :   0.9528 B(  1-C ,  3-O ) :   0.2194 B(  1-C ,  4-H ) :   0.9529
B(  1-C ,  5-O ) :   0.2194

Dispersion correction           -0.002967841
FINAL SINGLE POINT ENERGY      -244.394042199314

DIPOLE MOMENT
-------------
                                X             Y             Z
Electronic contribution:     -1.75051      -0.44824       1.27525
Nuclear contribution   :      2.76520       0.70958      -2.01455
                        -----------------------------------------
Total Dipole Moment    :      1.01469       0.26134      -0.73930
                        -----------------------------------------
Magnitude (a.u.)       :      1.28237
Magnitude (Debye)      :      3.25952

Rotational constants in cm-1:     0.406333     0.397890     0.201034
Rotational constants in MHz : 12181.566110 11928.446856  6026.840262

                             ****ORCA TERMINATED NORMALLY****
TOTAL RUN TIME: 0 days 0 hours 2 minutes 20 seconds 732 msec
