   * xtb version 6.7.1 (edcfbbe) compiled by 'albert@albert-system' on 2024-07-22

   ID    Z sym.   atoms
    1    6 C      1, 2
    2   17 Cl     3
    3    1 H      4, 5
    4    8 O      6, 7

          program call               : xtb tb_lite_results_shiftn0p2_gp13_b0_rot270_solute.xyz --ohess --chrg -1
          :  Hamiltonian                  GFN2-xTB          :
 * total energy  :   -18.1196167 Eh     change       -0.7915446E-11 Eh
 * total energy  :   -18.1510588 Eh     change       -0.3144207E-01 Eh
 * total energy  :   -18.1139757 Eh     change        0.3708305E-01 Eh
 * total energy  :   -18.1638999 Eh     change       -0.4992415E-01 Eh
 * total energy  :   -18.1792061 Eh     change       -0.1530620E-01 Eh
 * total energy  :   -18.1980310 Eh     change       -0.1882496E-01 Eh
 * total energy  :   -18.2117192 Eh     change       -0.1368816E-01 Eh
 * total energy  :   -18.2181857 Eh     change       -0.6466481E-02 Eh
 * total energy  :   -18.2160423 Eh     change        0.2143398E-02 Eh
 * total energy  :   -18.2170160 Eh     change       -0.9737418E-03 Eh
 * total energy  :   -18.2217815 Eh     change       -0.3848707E-03 Eh
 * total energy  :   -18.2223622 Eh     change       -0.5806422E-03 Eh
 * total energy  :   -18.2223279 Eh     change        0.3421977E-04 Eh
 * total energy  :   -18.2233533 Eh     change       -0.1025353E-02 Eh
 * total energy  :   -18.2232402 Eh     change        0.1130478E-03 Eh
 * total energy  :   -18.2234117 Eh     change       -0.1714700E-03 Eh
 * total energy  :   -18.2234285 Eh     change       -0.1675037E-04 Eh
 * total energy  :   -18.2234355 Eh     change       -0.7010229E-05 Eh
 * total energy  :   -18.2234365 Eh     change       -0.1018080E-05 Eh
   *** GEOMETRY OPTIMIZATION CONVERGED AFTER 20 ITERATIONS ***

 final structure:
================
7
 xtb: 6.7.1 (edcfbbe)
C           -0.23426627647583       -0.79999409132478        0.93577478006467
C           -0.40357138393209       -0.76781613292403       -0.67001810242150
Cl          -1.69809312929766       -1.29391617011901        1.79730959395908
H            0.54240875133083       -1.51784377425932        1.20612463518358
H            0.01671164329226        0.19916693061844        1.29668769567619
O           -0.70817856133491        0.33567745936070       -1.11970996729666
O           -0.08229805672931       -1.81417924996366       -1.23039662430666

          :  Hamiltonian                  GFN2-xTB          :
         :: gradient norm              0.010439038033 Eh/a0 ::
         :: HOMO-LUMO gap              4.532780494084 eV    ::
         :: SCC energy               -18.330609583394 Eh    ::
         :: -> dispersion             -0.004451247457 Eh    ::
         :: repulsion energy           0.107173092171 Eh    ::

    * Orbital Energies and Occupations

         #    Occupation            Energy/Eh            Energy/eV
      -------------------------------------------------------------
         1        2.0000           -0.9112143             -24.7954
       ...           ...                  ...                  ...
         3        2.0000           -0.4853091             -13.2059
         4        2.0000           -0.4543690             -12.3640
         5        2.0000           -0.3895668             -10.6007
         6        2.0000           -0.3586453              -9.7592
         7        2.0000           -0.3583288              -9.7506
         8        2.0000           -0.3515214              -9.5654
         9        2.0000           -0.3230722              -8.7912
        10        2.0000           -0.3098000              -8.4301
        11        2.0000           -0.2785567              -7.5799
        12        2.0000           -0.2677889              -7.2869
        13        2.0000           -0.2229527              -6.0669
        14        2.0000           -0.2089327              -5.6853
        15        2.0000           -0.1912920              -5.2053 (HOMO)
        16                         -0.0247163              -0.6726 (LUMO)
        17                          0.0284576               0.7744
        18                          0.1645181               4.4768
        19                          0.1723943               4.6911
        20                          0.1743779               4.7451
        21                          0.1754822               4.7751
        22                          0.2493781               6.7859
        23                          0.2983980               8.1198
        24                          0.3330906               9.0639
        25                          0.3548523               9.6560
        26                          0.6000104              16.3271
        27                          0.8915826              24.2612
      -------------------------------------------------------------
                  HL-Gap            0.1665758 Eh            4.5328 eV

     #   Z          covCN         q      C6AA      α(0)
     1   6 C        3.699     0.003    20.691     6.505
     2   6 C        2.680     0.374    20.666     7.439
     3  17 Cl       0.897    -0.272   107.803    15.884
     4   1 H        0.925     0.015     2.817     2.625
     5   1 H        0.925     0.015     2.814     2.623
     6   8 O        0.856    -0.567    25.326     6.747
     7   8 O        0.856    -0.567    25.316     6.746

Wiberg/Mayer (AO) data.
largest (>0.10) Wiberg bond orders for each atom

     #   Z sym  total        # sym  WBO       # sym  WBO       # sym  WBO
 ---------------------------------------------------------------------------
     1   6 C    3.855 --     5 H    0.987     4 H    0.987     3 Cl   0.920
                             2 C    0.827
     2   6 C    3.948 --     7 O    1.555     6 O    1.554     1 C    0.827
     3  17 Cl   0.969 --     1 C    0.920
     4   1 H    1.000 --     1 C    0.987
     5   1 H    1.000 --     1 C    0.987
     6   8 O    1.885 --     2 C    1.554     7 O    0.243
     7   8 O    1.886 --     2 C    1.555     6 O    0.243
 ---------------------------------------------------------------------------

molecular dipole:
                 x           y           z       tot (Debye)
 q only:        1.450       1.666       1.194
   full:        1.734       1.751       1.194       6.960

 projected vibrational frequencies (cm⁻¹)
eigval :       -0.00    -0.00     0.00     0.00     0.00     0.00
eigval :      -37.67   155.64   383.36   530.18   686.13   771.76
eigval :      778.99   884.58  1115.77  1204.70  1297.96  1415.15
eigval :     1833.37  2963.55  2970.94

   temp. (K)  partition function   enthalpy   heat capacity  entropy
                                   cal/mol     cal/K/mol   cal/K/mol   J/K/mol
 298.15  VIB   2.72                  984.449      8.079      5.287
         ROT  0.131E+06              888.752      2.981     26.403
         INT  0.357E+06             1873.202     11.060     31.690
         TR   0.875E+27             1481.254      4.968     39.499
         TOT                        3354.4557    16.0277    71.1897   297.8576

       T/K    H(0)-H(T)+PV         H(T)/Eh          T*S/Eh         G(T)/Eh
   ------------------------------------------------------------------------
    298.15    0.534567E-02    0.440565E-01    0.338245E-01    0.102320E-01
   ------------------------------------------------------------------------

         :::::::::::::::::::::::::::::::::::::::::::::::::::::
         ::                  THERMODYNAMIC                  ::
         :::::::::::::::::::::::::::::::::::::::::::::::::::::
         :: total free energy         -18.213204525002 Eh   ::
         ::.................................................::
         :: total energy              -18.223436491319 Eh   ::
         :: zero point energy           0.038710807225 Eh   ::
         :: G(RRHO) w/o ZPVE           -0.028478840909 Eh   ::
         :: G(RRHO) contrib.            0.010231966317 Eh   ::
         :::::::::::::::::::::::::::::::::::::::::::::::::::::

           -------------------------------------------------
          | TOTAL ENERGY              -18.223436491319 Eh   |
          | TOTAL ENTHALPY            -18.179380018694 Eh   |
          | TOTAL FREE ENERGY         -18.213204525002 Eh   |
          | GRADIENT NORM               0.010438984798 Eh/α |
          | HOMO-LUMO GAP               4.532757071368 eV   |
           -------------------------------------------------

 * finished run on 2025/10/18 at 21:19:26.630
normal termination of xtb
