   * xtb version 6.7.1 (edcfbbe) compiled by 'albert@albert-system' on 2024-07-22

   ID    Z sym.   atoms
    1    6 C      1, 2
    2   17 Cl     3
    3    1 H      4, 5, 9, 10
    4    8 O      6-8

          program call               : xtb tb_lite_results_shiftn0p1_gp13_b0_rot270_complex.xyz --ohess --chrg -1 --alpb water
      * Solvation model:               ALPB
        Solvent                        water
        Solvent mass                       1.8000E+01 g/mol
          :  Hamiltonian                  GFN2-xTB          :
 * total energy  :   -23.2992289 Eh     change       -0.1996625E-11 Eh
 * total energy  :   -23.3105734 Eh     change       -0.1134449E-01 Eh
 * total energy  :   -23.3223947 Eh     change       -0.1182129E-01 Eh
 * total energy  :   -23.3299171 Eh     change       -0.7522443E-02 Eh
 * total energy  :   -23.3350342 Eh     change       -0.5117061E-02 Eh
 * total energy  :   -23.3486835 Eh     change       -0.1364932E-01 Eh
 * total energy  :   -23.3506337 Eh     change       -0.1950205E-02 Eh
 * total energy  :   -23.3636603 Eh     change       -0.1302660E-01 Eh
 * total energy  :   -23.3681642 Eh     change       -0.4503868E-02 Eh
 * total energy  :   -23.3855529 Eh     change       -0.1738873E-01 Eh
 * total energy  :   -23.4089234 Eh     change       -0.1950170E-04 Eh
 * total energy  :   -23.4089526 Eh     change       -0.2920282E-04 Eh
 * total energy  :   -23.4089769 Eh     change       -0.2429803E-04 Eh
 * total energy  :   -23.4089952 Eh     change       -0.1824645E-04 Eh
 * total energy  :   -23.4090097 Eh     change       -0.1450697E-04 Eh
 * total energy  :   -23.4090156 Eh     change       -0.5949793E-05 Eh
 * total energy  :   -23.4090194 Eh     change       -0.3765060E-05 Eh
 * total energy  :   -23.4090184 Eh     change        0.9785641E-06 Eh
 * total energy  :   -23.4090216 Eh     change       -0.3171428E-05 Eh
   *** GEOMETRY OPTIMIZATION CONVERGED AFTER 59 ITERATIONS ***

 final structure:
================
10
 xtb: 6.7.1 (edcfbbe)
C            0.10742911917632       -0.67647218513068        0.47584858074247
C           -0.77595654188383       -0.85460295310628       -0.80122318838791
Cl          -0.79472342817660       -1.35923034673478        1.81344479708953
H            1.03598066702569       -1.23845898465888        0.39015219241337
H            0.27382189807671        0.37701849411624        0.69276360726931
O           -1.43239184595073        0.13939882693320       -1.15188870980513
O           -0.75099055715093       -1.97864622415174       -1.32922092031725
O            0.26537335517434       -1.26691734604166        5.09476521777453
H            0.10840203703290       -1.22722981175127        4.14391647760244
H           -0.51227611952659       -1.69259748314660        5.47113953101691

          :  Hamiltonian                  GFN2-xTB          :
         :: gradient norm              0.000404304059 Eh/a0 ::
         :: HOMO-LUMO gap              4.651553617298 eV    ::
         :: SCC energy               -23.547989416011 Eh    ::
         :: -> dispersion             -0.005384379410 Eh    ::
         :: -> Gsolv                  -0.113367573922 Eh    ::
         :: repulsion energy           0.138967845418 Eh    ::

    * Orbital Energies and Occupations

         #    Occupation            Energy/Eh            Energy/eV
      -------------------------------------------------------------
         1        2.0000           -1.0689288             -29.0870
       ...           ...                  ...                  ...
         7        2.0000           -0.5424574             -14.7610
         8        2.0000           -0.5383912             -14.6504
         9        2.0000           -0.5363791             -14.5956
        10        2.0000           -0.5313546             -14.4589
        11        2.0000           -0.4982487             -13.5580
        12        2.0000           -0.4954272             -13.4813
        13        2.0000           -0.4886561             -13.2970
        14        2.0000           -0.4397787             -11.9670
        15        2.0000           -0.4278148             -11.6414
        16        2.0000           -0.4252241             -11.5709
        17        2.0000           -0.4177199             -11.3667
        18        2.0000           -0.4014884             -10.9251
        19        2.0000           -0.3800363             -10.3413 (HOMO)
        20                         -0.2090948              -5.6898 (LUMO)
        21                         -0.1467033              -3.9920
        22                          0.0062059               0.1689
        23                          0.0116996               0.3184
        24                          0.0142780               0.3885
        25                          0.0156909               0.4270
        26                          0.0958237               2.6075
        27                          0.1236284               3.3641
        28                          0.1560134               4.2453
        29                          0.1755737               4.7776
        30                          0.2025759               5.5124
       ...                                ...                  ...
        33                          0.6360240              17.3071
      -------------------------------------------------------------
                  HL-Gap            0.1709415 Eh            4.6516 eV

     #   Z          covCN         q      C6AA      α(0)
     1   6 C        3.711    -0.003    20.767     6.512
     2   6 C        2.734     0.373    20.685     7.446
     3  17 Cl       0.942    -0.209   105.731    15.731
     4   1 H        0.925     0.056     2.241     2.341
     5   1 H        0.925     0.057     2.233     2.337
     6   8 O        0.856    -0.634    26.968     6.962
     7   8 O        0.856    -0.634    26.977     6.964
     8   8 O        1.610    -0.685    27.301     7.052
     9   1 H        0.805     0.316     0.675     1.290
    10   1 H        0.805     0.362     0.560     1.175

Wiberg/Mayer (AO) data.
largest (>0.10) Wiberg bond orders for each atom

     #   Z sym  total        # sym  WBO       # sym  WBO       # sym  WBO
 ---------------------------------------------------------------------------
     1   6 C    3.918 --     5 H    0.983     4 H    0.981     3 Cl   0.939
                             2 C    0.904
     2   6 C    3.938 --     7 O    1.509     6 O    1.509     1 C    0.904
     3  17 Cl   1.006 --     1 C    0.939
     4   1 H    0.997 --     1 C    0.981
     5   1 H    0.997 --     1 C    0.983
     6   8 O    1.814 --     2 C    1.509     7 O    0.226
     7   8 O    1.812 --     2 C    1.509     6 O    0.226
     8   8 O    1.765 --     9 H    0.892    10 H    0.869
     9   1 H    0.900 --     8 O    0.892
    10   1 H    0.869 --     8 O    0.869
 ---------------------------------------------------------------------------

molecular dipole:
                 x           y           z       tot (Debye)
 q only:        1.893       1.799       1.438
   full:        1.882       1.880       0.760       7.032

 projected vibrational frequencies (cm⁻¹)
eigval :       -0.00    -0.00     0.00     0.00     0.00     0.00
eigval :      -22.66    11.36    20.27    64.30    88.08   170.78
eigval :      198.68   313.89   402.70   575.68   678.30   784.75
eigval :      854.56   922.27  1094.17  1191.30  1311.89  1394.27
eigval :     1487.66  1702.19  3001.31  3019.49  3551.58  3592.99

   temp. (K)  partition function   enthalpy   heat capacity  entropy
                                   cal/mol     cal/K/mol   cal/K/mol   J/K/mol
 298.15  VIB  0.111E+05             3653.074     16.942     25.573
         ROT  0.346E+06              888.752      2.981     28.328
         INT  0.385E+10             4541.826     19.923     53.901
         TR   0.114E+28             1481.254      4.968     40.024
         TOT                        6023.0799    24.8907    93.9253   392.9836

       T/K    H(0)-H(T)+PV         H(T)/Eh          T*S/Eh         G(T)/Eh
   ------------------------------------------------------------------------
    298.15    0.959839E-02    0.698160E-01    0.446270E-01    0.251891E-01
   ------------------------------------------------------------------------

         :::::::::::::::::::::::::::::::::::::::::::::::::::::
         ::                  THERMODYNAMIC                  ::
         :::::::::::::::::::::::::::::::::::::::::::::::::::::
         :: total free energy         -23.383832514111 Eh   ::
         ::.................................................::
         :: total energy              -23.409021570820 Eh   ::
         :: zero point energy           0.060217624178 Eh   ::
         :: G(RRHO) w/o ZPVE           -0.035028567468 Eh   ::
         :: G(RRHO) contrib.            0.025189056710 Eh   ::
         :::::::::::::::::::::::::::::::::::::::::::::::::::::

           -------------------------------------------------
          | TOTAL ENERGY              -23.409021570820 Eh   |
          | TOTAL ENTHALPY            -23.339205557806 Eh   |
          | TOTAL FREE ENERGY         -23.383832514111 Eh   |
          | GRADIENT NORM               0.000404410067 Eh/α |
          | HOMO-LUMO GAP               4.651554852722 eV   |
           -------------------------------------------------

 * finished run on 2025/10/18 at 21:19:17.631
normal termination of xtb
