   * xtb version 6.7.1 (edcfbbe) compiled by 'albert@albert-system' on 2024-07-22

   ID    Z sym.   atoms
    1    6 C      1, 2
    2   17 Cl     3
    3    1 H      4, 5, 9, 10
    4    8 O      6-8

          program call               : xtb tb_lite_results_shiftn0p2_gp13_b0_rot270_complex.xyz --ohess --chrg -1 --alpb water
      * Solvation model:               ALPB
        Solvent                        water
        Solvent mass                       1.8000E+01 g/mol
          :  Hamiltonian                  GFN2-xTB          :
 * total energy  :   -23.2987364 Eh     change       -0.4541789E-10 Eh
 * total energy  :   -23.3073847 Eh     change       -0.8648320E-02 Eh
 * total energy  :   -23.3040224 Eh     change        0.3362244E-02 Eh
 * total energy  :   -23.3228592 Eh     change       -0.1883674E-01 Eh
 * total energy  :   -23.3294005 Eh     change       -0.6541301E-02 Eh
 * total energy  :   -23.3467022 Eh     change       -0.1730174E-01 Eh
 * total energy  :   -23.3627312 Eh     change       -0.1602901E-01 Eh
 * total energy  :   -23.3541558 Eh     change        0.8575399E-02 Eh
 * total energy  :   -23.3894348 Eh     change       -0.3527899E-01 Eh
 * total energy  :   -23.3910744 Eh     change       -0.1639567E-02 Eh
 * total energy  :   -23.4089734 Eh     change       -0.1118070E-04 Eh
 * total energy  :   -23.4089917 Eh     change       -0.1830573E-04 Eh
 * total energy  :   -23.4089992 Eh     change       -0.7473003E-05 Eh
 * total energy  :   -23.4090095 Eh     change       -0.1027816E-04 Eh
 * total energy  :   -23.4090197 Eh     change       -0.1028185E-04 Eh
 * total energy  :   -23.4090251 Eh     change       -0.5365428E-05 Eh
 * total energy  :   -23.4090330 Eh     change       -0.7854197E-05 Eh
 * total energy  :   -23.4090338 Eh     change       -0.8680940E-06 Eh
 * total energy  :   -23.4090353 Eh     change       -0.1461236E-05 Eh
   *** GEOMETRY OPTIMIZATION CONVERGED AFTER 59 ITERATIONS ***

 final structure:
================
10
 xtb: 6.7.1 (edcfbbe)
C            0.16841654098208       -0.68008502215251        0.48722630678805
C           -0.64378973424849       -0.76678189967218       -0.84531355711639
Cl          -0.90283544384795       -1.22794990026954        1.76102323767916
H            1.02550270153915       -1.35087673337181        0.46871927973692
H            0.44486736868895        0.34856425738906        0.71171107657468
O           -1.30352312898563        0.24101717585029       -1.14803850159009
O           -0.56849272375252       -1.84316402663191       -1.46012609614787
O            0.06804316865374       -1.40669396440087        5.05382642001975
H           -0.04642166761787       -1.28944342003234        4.10340092461262
H           -0.77263318821422       -1.74678978978180        5.37773128431364

          :  Hamiltonian                  GFN2-xTB          :
         :: gradient norm              0.000249655015 Eh/a0 ::
         :: HOMO-LUMO gap              4.645398660163 eV    ::
         :: SCC energy               -23.548039027323 Eh    ::
         :: -> dispersion             -0.005397637220 Eh    ::
         :: -> Gsolv                  -0.113305444209 Eh    ::
         :: repulsion energy           0.139003740359 Eh    ::

    * Orbital Energies and Occupations

         #    Occupation            Energy/Eh            Energy/eV
      -------------------------------------------------------------
         1        2.0000           -1.0691034             -29.0918
       ...           ...                  ...                  ...
         7        2.0000           -0.5423744             -14.7588
         8        2.0000           -0.5383052             -14.6480
         9        2.0000           -0.5362403             -14.5918
        10        2.0000           -0.5316965             -14.4682
        11        2.0000           -0.4980673             -13.5531
        12        2.0000           -0.4955652             -13.4850
        13        2.0000           -0.4887882             -13.3006
        14        2.0000           -0.4400062             -11.9732
        15        2.0000           -0.4280127             -11.6468
        16        2.0000           -0.4252480             -11.5716
        17        2.0000           -0.4176985             -11.3662
        18        2.0000           -0.4014267             -10.9234
        19        2.0000           -0.3800050             -10.3405 (HOMO)
        20                         -0.2092895              -5.6951 (LUMO)
        21                         -0.1465056              -3.9866
        22                          0.0061377               0.1670
        23                          0.0115053               0.3131
        24                          0.0140664               0.3828
        25                          0.0153669               0.4182
        26                          0.0953907               2.5957
        27                          0.1240074               3.3744
        28                          0.1564060               4.2560
        29                          0.1752109               4.7677
        30                          0.2022206               5.5027
       ...                                ...                  ...
        33                          0.6360547              17.3079
      -------------------------------------------------------------
                  HL-Gap            0.1707156 Eh            4.6454 eV

     #   Z          covCN         q      C6AA      α(0)
     1   6 C        3.711    -0.003    20.770     6.513
     2   6 C        2.736     0.373    20.684     7.446
     3  17 Cl       0.944    -0.208   105.718    15.730
     4   1 H        0.925     0.057     2.235     2.338
     5   1 H        0.925     0.057     2.236     2.338
     6   8 O        0.856    -0.634    26.977     6.964
     7   8 O        0.856    -0.634    26.975     6.963
     8   8 O        1.610    -0.684    27.299     7.052
     9   1 H        0.805     0.316     0.675     1.290
    10   1 H        0.805     0.362     0.561     1.176

Wiberg/Mayer (AO) data.
largest (>0.10) Wiberg bond orders for each atom

     #   Z sym  total        # sym  WBO       # sym  WBO       # sym  WBO
 ---------------------------------------------------------------------------
     1   6 C    3.917 --     4 H    0.982     5 H    0.982     3 Cl   0.939
                             2 C    0.904
     2   6 C    3.938 --     7 O    1.509     6 O    1.509     1 C    0.904
     3  17 Cl   1.007 --     1 C    0.939
     4   1 H    0.997 --     1 C    0.982
     5   1 H    0.997 --     1 C    0.982
     6   8 O    1.812 --     2 C    1.509     7 O    0.226
     7   8 O    1.813 --     2 C    1.509     6 O    0.226
     8   8 O    1.765 --     9 H    0.892    10 H    0.869
     9   1 H    0.900 --     8 O    0.892
    10   1 H    0.869 --     8 O    0.869
 ---------------------------------------------------------------------------

molecular dipole:
                 x           y           z       tot (Debye)
 q only:        1.659       1.614       1.554
   full:        1.686       1.725       0.883       6.529

 projected vibrational frequencies (cm⁻¹)
eigval :       -0.00     0.00     0.00     0.00     0.00     0.00
eigval :       17.34    22.66    29.88    68.28   141.71   170.31
eigval :      200.24   333.77   404.73   577.31   679.14   784.73
eigval :      854.54   923.28  1094.91  1191.48  1312.12  1394.07
eigval :     1488.10  1702.29  3002.09  3019.64  3553.79  3596.80

   temp. (K)  partition function   enthalpy   heat capacity  entropy
                                   cal/mol     cal/K/mol   cal/K/mol   J/K/mol
 298.15  VIB  0.319E+05             4106.511     18.093     28.312
         ROT  0.345E+06              888.752      2.981     28.321
         INT  0.110E+11             4995.263     21.074     56.633
         TR   0.114E+28             1481.254      4.968     40.024
         TOT                        6476.5171    26.0421    96.6573   404.4143

       T/K    H(0)-H(T)+PV         H(T)/Eh          T*S/Eh         G(T)/Eh
   ------------------------------------------------------------------------
    298.15    0.103210E-01    0.708364E-01    0.459250E-01    0.249114E-01
   ------------------------------------------------------------------------

         :::::::::::::::::::::::::::::::::::::::::::::::::::::
         ::                  THERMODYNAMIC                  ::
         :::::::::::::::::::::::::::::::::::::::::::::::::::::
         :: total free energy         -23.384123886261 Eh   ::
         ::.................................................::
         :: total energy              -23.409035286113 Eh   ::
         :: zero point energy           0.060515434819 Eh   ::
         :: G(RRHO) w/o ZPVE           -0.035604034967 Eh   ::
         :: G(RRHO) contrib.            0.024911399852 Eh   ::
         :::::::::::::::::::::::::::::::::::::::::::::::::::::

           -------------------------------------------------
          | TOTAL ENERGY              -23.409035286113 Eh   |
          | TOTAL ENTHALPY            -23.338198864273 Eh   |
          | TOTAL FREE ENERGY         -23.384123886261 Eh   |
          | GRADIENT NORM               0.000249343316 Eh/α |
          | HOMO-LUMO GAP               4.645407250678 eV   |
           -------------------------------------------------

 * finished run on 2025/10/18 at 21:19:25.241
normal termination of xtb
