   * xtb version 6.7.1 (edcfbbe) compiled by 'albert@albert-system' on 2024-07-22

   ID    Z sym.   atoms
    1    6 C      1, 2
    2   17 Cl     3
    3    1 H      4, 5, 9, 10
    4    8 O      6-8

          program call               : xtb tb_lite_results_shiftn0p15_gp11_b0_rot270_complex.xyz --ohess --chrg -1 --alpb water
      * Solvation model:               ALPB
        Solvent                        water
        Solvent mass                       1.8000E+01 g/mol
          :  Hamiltonian                  GFN2-xTB          :
 * total energy  :   -23.2989703 Eh     change       -0.1562128E-10 Eh
 * total energy  :   -23.3080154 Eh     change       -0.9045090E-02 Eh
 * total energy  :   -23.3254189 Eh     change       -0.1740353E-01 Eh
 * total energy  :   -23.3310693 Eh     change       -0.5650403E-02 Eh
 * total energy  :   -23.3385904 Eh     change       -0.7521043E-02 Eh
 * total energy  :   -23.3528015 Eh     change       -0.1421115E-01 Eh
 * total energy  :   -23.3679658 Eh     change       -0.1516426E-01 Eh
 * total energy  :   -23.3831404 Eh     change       -0.1517465E-01 Eh
 * total energy  :   -23.3968770 Eh     change       -0.1373662E-01 Eh
 * total energy  :   -23.3995497 Eh     change       -0.2672638E-02 Eh
 * total energy  :   -23.4103586 Eh     change       -0.1013712E-04 Eh
 * total energy  :   -23.4103655 Eh     change       -0.6952607E-05 Eh
 * total energy  :   -23.4103746 Eh     change       -0.9011461E-05 Eh
 * total energy  :   -23.4103816 Eh     change       -0.7002628E-05 Eh
 * total energy  :   -23.4103878 Eh     change       -0.6261127E-05 Eh
 * total energy  :   -23.4103937 Eh     change       -0.5831040E-05 Eh
 * total energy  :   -23.4103928 Eh     change        0.8488670E-06 Eh
 * total energy  :   -23.4103990 Eh     change       -0.6228023E-05 Eh
 * total energy  :   -23.4104023 Eh     change       -0.3282409E-05 Eh
   *** GEOMETRY OPTIMIZATION CONVERGED AFTER 109 ITERATIONS ***

 final structure:
================
10
 xtb: 6.7.1 (edcfbbe)
C           -0.09705754203070       -0.43275208268687        0.48966314943827
C           -0.54876188718973       -1.16857321399874       -0.81197425457293
Cl          -0.71502949158047       -1.23230801237155        1.91846792473198
H            0.99101542012278       -0.43317075186353        0.54498066514911
H           -0.47369641507495        0.58907870307313        0.48059233287326
O           -0.17484753491152       -0.60838370751491       -1.85632668205172
O           -1.21288813243052       -2.20841752540774       -0.69362601741570
O            0.22939204060311       -0.28568497302534        5.07824887264542
H            0.15529596062264       -0.68286048777059        4.20262909425228
H           -0.65652117963450        0.01693595074145        5.30227389508340

          :  Hamiltonian                  GFN2-xTB          :
         :: gradient norm              0.000732637779 Eh/a0 ::
         :: HOMO-LUMO gap              5.207201505914 eV    ::
         :: SCC energy               -23.549851136716 Eh    ::
         :: -> dispersion             -0.005334235005 Eh    ::
         :: -> Gsolv                  -0.113156407057 Eh    ::
         :: repulsion energy           0.139448821246 Eh    ::

    * Orbital Energies and Occupations

         #    Occupation            Energy/Eh            Energy/eV
      -------------------------------------------------------------
         1        2.0000           -1.0640758             -28.9550
       ...           ...                  ...                  ...
         7        2.0000           -0.5456153             -14.8469
         8        2.0000           -0.5384354             -14.6516
         9        2.0000           -0.5377291             -14.6324
        10        2.0000           -0.5230952             -14.2341
        11        2.0000           -0.5003065             -13.6140
        12        2.0000           -0.4927978             -13.4097
        13        2.0000           -0.4872156             -13.2578
        14        2.0000           -0.4314644             -11.7407
        15        2.0000           -0.4243846             -11.5481
        16        2.0000           -0.4240247             -11.5383
        17        2.0000           -0.4175022             -11.3608
        18        2.0000           -0.4017754             -10.9329
        19        2.0000           -0.3812529             -10.3744 (HOMO)
        20                         -0.1898920              -5.1672 (LUMO)
        21                         -0.1624982              -4.4218
        22                          0.0088390               0.2405
        23                          0.0156123               0.4248
        24                          0.0202529               0.5511
        25                          0.0213351               0.5806
        26                          0.1024721               2.7884
        27                          0.1257899               3.4229
        28                          0.1518647               4.1324
        29                          0.1795523               4.8859
        30                          0.2144658               5.8359
       ...                                ...                  ...
        33                          0.6393006              17.3963
      -------------------------------------------------------------
                  HL-Gap            0.1913609 Eh            5.2072 eV

     #   Z          covCN         q      C6AA      α(0)
     1   6 C        3.712    -0.005    20.805     6.518
     2   6 C        2.707     0.373    20.672     7.442
     3  17 Cl       0.916    -0.218   106.007    15.751
     4   1 H        0.925     0.062     2.175     2.306
     5   1 H        0.925     0.064     2.153     2.294
     6   8 O        0.857    -0.642    27.183     6.990
     7   8 O        0.857    -0.628    26.820     6.943
     8   8 O        1.610    -0.685    27.304     7.052
     9   1 H        0.805     0.318     0.670     1.286
    10   1 H        0.805     0.361     0.564     1.179

Wiberg/Mayer (AO) data.
largest (>0.10) Wiberg bond orders for each atom

     #   Z sym  total        # sym  WBO       # sym  WBO       # sym  WBO
 ---------------------------------------------------------------------------
     1   6 C    3.916 --     5 H    0.973     4 H    0.972     3 Cl   0.945
                             2 C    0.903
     2   6 C    3.938 --     7 O    1.520     6 O    1.496     1 C    0.903
     3  17 Cl   1.001 --     1 C    0.945
     4   1 H    0.996 --     1 C    0.972
     5   1 H    0.996 --     1 C    0.973
     6   8 O    1.805 --     2 C    1.496     7 O    0.221
     7   8 O    1.820 --     2 C    1.520     6 O    0.221
     8   8 O    1.765 --     9 H    0.891    10 H    0.870
     9   1 H    0.899 --     8 O    0.891
    10   1 H    0.870 --     8 O    0.870
 ---------------------------------------------------------------------------

molecular dipole:
                 x           y           z       tot (Debye)
 q only:        0.967       3.038       1.400
   full:        0.875       3.043       0.694       8.240

 projected vibrational frequencies (cm⁻¹)
eigval :       -0.00     0.00     0.00     0.00     0.00     0.00
eigval :      -36.69   -15.17    45.26    49.92    79.60   157.53
eigval :      185.67   304.87   411.68   538.09   627.84   779.63
eigval :      856.87   882.00  1094.47  1193.56  1312.40  1393.21
eigval :     1486.43  1704.97  2994.80  3000.36  3555.35  3603.86

   temp. (K)  partition function   enthalpy   heat capacity  entropy
                                   cal/mol     cal/K/mol   cal/K/mol   J/K/mol
 298.15  VIB  0.612E+04             3706.915     17.327     25.752
         ROT  0.338E+06              888.752      2.981     28.282
         INT  0.207E+10             4595.668     20.308     54.035
         TR   0.114E+28             1481.254      4.968     40.024
         TOT                        6076.9215    25.2761    94.0591   393.5431

       T/K    H(0)-H(T)+PV         H(T)/Eh          T*S/Eh         G(T)/Eh
   ------------------------------------------------------------------------
    298.15    0.968419E-02    0.695397E-01    0.446905E-01    0.248492E-01
   ------------------------------------------------------------------------

         :::::::::::::::::::::::::::::::::::::::::::::::::::::
         ::                  THERMODYNAMIC                  ::
         :::::::::::::::::::::::::::::::::::::::::::::::::::::
         :: total free energy         -23.385553123640 Eh   ::
         ::.................................................::
         :: total energy              -23.410402317899 Eh   ::
         :: zero point energy           0.059855494197 Eh   ::
         :: G(RRHO) w/o ZPVE           -0.035006299939 Eh   ::
         :: G(RRHO) contrib.            0.024849194259 Eh   ::
         :::::::::::::::::::::::::::::::::::::::::::::::::::::

           -------------------------------------------------
          | TOTAL ENERGY              -23.410402317899 Eh   |
          | TOTAL ENTHALPY            -23.340862632901 Eh   |
          | TOTAL FREE ENERGY         -23.385553123640 Eh   |
          | GRADIENT NORM               0.000733116023 Eh/α |
          | HOMO-LUMO GAP               5.207196157923 eV   |
           -------------------------------------------------

 * finished run on 2025/10/18 at 21:19:32.087
normal termination of xtb
