   * xtb version 6.7.1 (edcfbbe) compiled by 'albert@albert-system' on 2024-07-22

   ID    Z sym.   atoms
    1    6 C      1, 2
    2   17 Cl     3
    3    1 H      4, 5, 9, 10
    4    8 O      6-8

          program call               : xtb tb_lite_results_shiftn0p15_gp3_b0_rot270_complex.xyz --ohess --chrg -1 --alpb water
      * Solvation model:               ALPB
        Solvent                        water
        Solvent mass                       1.8000E+01 g/mol
          :  Hamiltonian                  GFN2-xTB          :
 * total energy  :   -23.2986702 Eh     change       -0.3845457E-10 Eh
 * total energy  :   -23.3070180 Eh     change       -0.8347884E-02 Eh
 * total energy  :   -23.3078833 Eh     change       -0.8652323E-03 Eh
 * total energy  :   -23.3238568 Eh     change       -0.1597355E-01 Eh
 * total energy  :   -23.3322541 Eh     change       -0.8397281E-02 Eh
 * total energy  :   -23.3525256 Eh     change       -0.2027149E-01 Eh
 * total energy  :   -23.3696991 Eh     change       -0.1717349E-01 Eh
 * total energy  :   -23.3700625 Eh     change       -0.3634580E-03 Eh
 * total energy  :   -23.3877111 Eh     change       -0.1764858E-01 Eh
 * total energy  :   -23.3847560 Eh     change        0.2955118E-02 Eh
 * total energy  :   -23.4089033 Eh     change       -0.6044902E-04 Eh
 * total energy  :   -23.4089385 Eh     change       -0.3516760E-04 Eh
 * total energy  :   -23.4089614 Eh     change       -0.2294668E-04 Eh
 * total energy  :   -23.4089854 Eh     change       -0.2393355E-04 Eh
 * total energy  :   -23.4089984 Eh     change       -0.1299859E-04 Eh
 * total energy  :   -23.4090081 Eh     change       -0.9678666E-05 Eh
 * total energy  :   -23.4090185 Eh     change       -0.1042540E-04 Eh
 * total energy  :   -23.4090240 Eh     change       -0.5559549E-05 Eh
 * total energy  :   -23.4090261 Eh     change       -0.2058466E-05 Eh
   *** GEOMETRY OPTIMIZATION CONVERGED AFTER 57 ITERATIONS ***

 final structure:
================
10
 xtb: 6.7.1 (edcfbbe)
C            0.11111074276133       -0.69300674341409        0.53370447326083
C           -0.62166121994599       -0.84398256345741       -0.83871334185920
Cl          -1.04853208510196       -1.13298235117361        1.77064137278163
H            0.94800356068184       -1.38505241290080        0.60978917857440
H            0.40392801597717        0.34036884251196        0.70970462139044
O           -1.15264678766562        0.18446765362701       -1.28848718568509
O           -0.61978617595438       -1.98247939089675       -1.33519887367226
O           -0.35661203192471       -0.79290797288196        5.09865166502142
H           -0.37973886890449       -0.90994840273599        4.14125493501710
H           -1.26817084128805       -0.88253004327696        5.39389459598176

          :  Hamiltonian                  GFN2-xTB          :
         :: gradient norm              0.000731824599 Eh/a0 ::
         :: HOMO-LUMO gap              4.648407877572 eV    ::
         :: SCC energy               -23.548108159244 Eh    ::
         :: -> dispersion             -0.005409503068 Eh    ::
         :: -> Gsolv                  -0.113206768279 Eh    ::
         :: repulsion energy           0.139082059333 Eh    ::

    * Orbital Energies and Occupations

         #    Occupation            Energy/Eh            Energy/eV
      -------------------------------------------------------------
         1        2.0000           -1.0691725             -29.0937
       ...           ...                  ...                  ...
         7        2.0000           -0.5424823             -14.7617
         8        2.0000           -0.5381896             -14.6449
         9        2.0000           -0.5363110             -14.5938
        10        2.0000           -0.5316404             -14.4667
        11        2.0000           -0.4982073             -13.5569
        12        2.0000           -0.4955879             -13.4856
        13        2.0000           -0.4886641             -13.2972
        14        2.0000           -0.4400171             -11.9735
        15        2.0000           -0.4280571             -11.6480
        16        2.0000           -0.4250812             -11.5670
        17        2.0000           -0.4177541             -11.3677
        18        2.0000           -0.4014947             -10.9252
        19        2.0000           -0.3800293             -10.3411 (HOMO)
        20                         -0.2092032              -5.6927 (LUMO)
        21                         -0.1465526              -3.9879
        22                          0.0059841               0.1628
        23                          0.0113901               0.3099
        24                          0.0138613               0.3772
        25                          0.0151854               0.4132
        26                          0.0954150               2.5964
        27                          0.1248612               3.3976
        28                          0.1565439               4.2598
        29                          0.1755787               4.7777
        30                          0.2023754               5.5069
       ...                                ...                  ...
        33                          0.6361993              17.3119
      -------------------------------------------------------------
                  HL-Gap            0.1708261 Eh            4.6484 eV

     #   Z          covCN         q      C6AA      α(0)
     1   6 C        3.711    -0.003    20.770     6.513
     2   6 C        2.735     0.373    20.684     7.446
     3  17 Cl       0.944    -0.208   105.705    15.729
     4   1 H        0.925     0.056     2.242     2.342
     5   1 H        0.925     0.058     2.228     2.334
     6   8 O        0.856    -0.634    26.966     6.962
     7   8 O        0.856    -0.635    26.985     6.965
     8   8 O        1.610    -0.685    27.303     7.052
     9   1 H        0.805     0.316     0.676     1.291
    10   1 H        0.805     0.362     0.561     1.176

Wiberg/Mayer (AO) data.
largest (>0.10) Wiberg bond orders for each atom

     #   Z sym  total        # sym  WBO       # sym  WBO       # sym  WBO
 ---------------------------------------------------------------------------
     1   6 C    3.917 --     5 H    0.983     4 H    0.982     3 Cl   0.939
                             2 C    0.904
     2   6 C    3.938 --     6 O    1.510     7 O    1.509     1 C    0.904
     3  17 Cl   1.008 --     1 C    0.939
     4   1 H    0.997 --     1 C    0.982
     5   1 H    0.997 --     1 C    0.983
     6   8 O    1.813 --     2 C    1.510     7 O    0.226
     7   8 O    1.812 --     2 C    1.509     6 O    0.226
     8   8 O    1.765 --     9 H    0.891    10 H    0.869
     9   1 H    0.900 --     8 O    0.891
    10   1 H    0.869 --     8 O    0.869
 ---------------------------------------------------------------------------

molecular dipole:
                 x           y           z       tot (Debye)
 q only:        1.610       1.780       1.560
   full:        1.687       1.821       0.885       6.699

 projected vibrational frequencies (cm⁻¹)
eigval :       -0.00    -0.00    -0.00    -0.00     0.00     0.00
eigval :     -110.04   -22.87     9.11    35.85    77.31   171.10
eigval :      265.62   308.78   402.57   576.75   679.07   784.98
eigval :      854.39   922.48  1094.95  1191.88  1312.09  1393.86
eigval :     1493.84  1702.53  3002.46  3020.19  3546.97  3608.73

   temp. (K)  partition function   enthalpy   heat capacity  entropy
                                   cal/mol     cal/K/mol   cal/K/mol   J/K/mol
 298.15  VIB  0.206E+04             3084.433     15.264     21.151
         ROT  0.344E+06              888.752      2.981     28.314
         INT  0.708E+09             3973.185     18.245     49.465
         TR   0.114E+28             1481.254      4.968     40.024
         TOT                        5454.4394    23.2127    89.4895   374.4241

       T/K    H(0)-H(T)+PV         H(T)/Eh          T*S/Eh         G(T)/Eh
   ------------------------------------------------------------------------
    298.15    0.869220E-02    0.689623E-01    0.425193E-01    0.264429E-01
   ------------------------------------------------------------------------

         :::::::::::::::::::::::::::::::::::::::::::::::::::::
         ::                  THERMODYNAMIC                  ::
         :::::::::::::::::::::::::::::::::::::::::::::::::::::
         :: total free energy         -23.382583157805 Eh   ::
         ::.................................................::
         :: total energy              -23.409026099805 Eh   ::
         :: zero point energy           0.060270088879 Eh   ::
         :: G(RRHO) w/o ZPVE           -0.033827146879 Eh   ::
         :: G(RRHO) contrib.            0.026442942000 Eh   ::
         :::::::::::::::::::::::::::::::::::::::::::::::::::::

           -------------------------------------------------
          | TOTAL ENERGY              -23.409026099805 Eh   |
          | TOTAL ENTHALPY            -23.340063808473 Eh   |
          | TOTAL FREE ENERGY         -23.382583157805 Eh   |
          | GRADIENT NORM               0.000731971132 Eh/α |
          | HOMO-LUMO GAP               4.648414599479 eV   |
           -------------------------------------------------

 * finished run on 2025/10/18 at 21:19:39.009
normal termination of xtb
