   * xtb version 6.7.1 (edcfbbe) compiled by 'albert@albert-system' on 2024-07-22

   ID    Z sym.   atoms
    1    6 C      1, 2
    2   17 Cl     3
    3    1 H      4, 5, 9, 10
    4    8 O      6-8

          program call               : xtb tb_lite_results_shiftn0p15_gp13_b0_rot270_complex.xyz --ohess --chrg -1 --alpb water
      * Solvation model:               ALPB
        Solvent                        water
        Solvent mass                       1.8000E+01 g/mol
          :  Hamiltonian                  GFN2-xTB          :
 * total energy  :   -23.2990871 Eh     change       -0.2251355E-10 Eh
 * total energy  :   -23.3087025 Eh     change       -0.9615422E-02 Eh
 * total energy  :   -23.3247151 Eh     change       -0.1601260E-01 Eh
 * total energy  :   -23.3306844 Eh     change       -0.5969270E-02 Eh
 * total energy  :   -23.3372172 Eh     change       -0.6532795E-02 Eh
 * total energy  :   -23.3528984 Eh     change       -0.1568125E-01 Eh
 * total energy  :   -23.3471583 Eh     change        0.5740087E-02 Eh
 * total energy  :   -23.3705308 Eh     change       -0.2337242E-01 Eh
 * total energy  :   -23.3731909 Eh     change       -0.2660121E-02 Eh
 * total energy  :   -23.3888940 Eh     change       -0.1570310E-01 Eh
 * total energy  :   -23.4088779 Eh     change       -0.1753777E-04 Eh
 * total energy  :   -23.4089077 Eh     change       -0.2981406E-04 Eh
 * total energy  :   -23.4089380 Eh     change       -0.3024535E-04 Eh
 * total energy  :   -23.4089668 Eh     change       -0.2880663E-04 Eh
 * total energy  :   -23.4090012 Eh     change       -0.3435876E-04 Eh
 * total energy  :   -23.4090226 Eh     change       -0.2140607E-04 Eh
 * total energy  :   -23.4090278 Eh     change       -0.5240568E-05 Eh
 * total energy  :   -23.4090377 Eh     change       -0.9906083E-05 Eh
 * total energy  :   -23.4090413 Eh     change       -0.3615757E-05 Eh
   *** GEOMETRY OPTIMIZATION CONVERGED AFTER 57 ITERATIONS ***

 final structure:
================
10
 xtb: 6.7.1 (edcfbbe)
C            0.09496428056933       -0.66210755033328        0.46294952536664
C           -0.80731259054094       -0.81767295735102       -0.80395612797328
Cl          -0.85301446532193       -1.23857882955151        1.82088926931033
H            0.98206043707695       -1.28937323390856        0.39370394103322
H            0.33310357370991        0.38342918186553        0.65027613059136
O           -1.51613255543931        0.16082463593043       -1.09137546873829
O           -0.74532514923196       -1.91346367998888       -1.38515773904134
O            0.31937497644804       -1.34760861078323        5.06564584422437
H            0.14084144234181       -1.21987552619931        4.12665628625391
H           -0.45165871111440       -1.80554409805382        5.41529731910765

          :  Hamiltonian                  GFN2-xTB          :
         :: gradient norm              0.000858285374 Eh/a0 ::
         :: HOMO-LUMO gap              4.641303248400 eV    ::
         :: SCC energy               -23.548054956133 Eh    ::
         :: -> dispersion             -0.005387533813 Eh    ::
         :: -> Gsolv                  -0.113324897517 Eh    ::
         :: repulsion energy           0.139013629180 Eh    ::

    * Orbital Energies and Occupations

         #    Occupation            Energy/Eh            Energy/eV
      -------------------------------------------------------------
         1        2.0000           -1.0689735             -29.0882
       ...           ...                  ...                  ...
         7        2.0000           -0.5422750             -14.7561
         8        2.0000           -0.5383089             -14.6481
         9        2.0000           -0.5361727             -14.5900
        10        2.0000           -0.5316068             -14.4658
        11        2.0000           -0.4979643             -13.5503
        12        2.0000           -0.4955096             -13.4835
        13        2.0000           -0.4890037             -13.3065
        14        2.0000           -0.4398931             -11.9701
        15        2.0000           -0.4279577             -11.6453
        16        2.0000           -0.4253842             -11.5753
        17        2.0000           -0.4176814             -11.3657
        18        2.0000           -0.4014441             -10.9239
        19        2.0000           -0.3799714             -10.3395 (HOMO)
        20                         -0.2094069              -5.6983 (LUMO)
        21                         -0.1466832              -3.9915
        22                          0.0063527               0.1729
        23                          0.0116548               0.3171
        24                          0.0142506               0.3878
        25                          0.0156801               0.4267
        26                          0.0948496               2.5810
        27                          0.1244306               3.3859
        28                          0.1562629               4.2521
        29                          0.1744150               4.7461
        30                          0.2020987               5.4994
       ...                                ...                  ...
        33                          0.6363326              17.3155
      -------------------------------------------------------------
                  HL-Gap            0.1705645 Eh            4.6413 eV

     #   Z          covCN         q      C6AA      α(0)
     1   6 C        3.711    -0.003    20.773     6.513
     2   6 C        2.736     0.373    20.683     7.446
     3  17 Cl       0.944    -0.209   105.737    15.731
     4   1 H        0.925     0.057     2.233     2.337
     5   1 H        0.925     0.057     2.237     2.339
     6   8 O        0.856    -0.634    26.977     6.964
     7   8 O        0.856    -0.634    26.973     6.963
     8   8 O        1.610    -0.684    27.297     7.052
     9   1 H        0.805     0.316     0.674     1.289
    10   1 H        0.805     0.362     0.561     1.177

Wiberg/Mayer (AO) data.
largest (>0.10) Wiberg bond orders for each atom

     #   Z sym  total        # sym  WBO       # sym  WBO       # sym  WBO
 ---------------------------------------------------------------------------
     1   6 C    3.917 --     5 H    0.982     4 H    0.982     3 Cl   0.939
                             2 C    0.904
     2   6 C    3.938 --     7 O    1.509     6 O    1.509     1 C    0.904
     3  17 Cl   1.006 --     1 C    0.939
     4   1 H    0.997 --     1 C    0.982
     5   1 H    0.997 --     1 C    0.982
     6   8 O    1.813 --     2 C    1.509     7 O    0.226
     7   8 O    1.813 --     2 C    1.509     6 O    0.226
     8   8 O    1.765 --     9 H    0.892    10 H    0.869
     9   1 H    0.900 --     8 O    0.892
    10   1 H    0.869 --     8 O    0.869
 ---------------------------------------------------------------------------

molecular dipole:
                 x           y           z       tot (Debye)
 q only:        1.982       1.698       1.412
   full:        1.963       1.790       0.734       7.004

 projected vibrational frequencies (cm⁻¹)
eigval :       -0.00    -0.00     0.00     0.00     0.00     0.00
eigval :      -67.32    23.03    29.05    33.35    72.23   170.43
eigval :      209.84   333.83   404.87   577.48   678.40   783.91
eigval :      853.94   923.32  1094.33  1191.09  1311.55  1394.28
eigval :     1490.27  1702.28  3001.17  3018.86  3557.86  3603.45

   temp. (K)  partition function   enthalpy   heat capacity  entropy
                                   cal/mol     cal/K/mol   cal/K/mol   J/K/mol
 298.15  VIB  0.800E+04             3658.148     16.361     24.979
         ROT  0.346E+06              888.752      2.981     28.327
         INT  0.277E+10             4546.900     19.341     53.307
         TR   0.114E+28             1481.254      4.968     40.024
         TOT                        6028.1543    24.3096    93.3311   390.4974

       T/K    H(0)-H(T)+PV         H(T)/Eh          T*S/Eh         G(T)/Eh
   ------------------------------------------------------------------------
    298.15    0.960648E-02    0.698842E-01    0.443446E-01    0.255395E-01
   ------------------------------------------------------------------------

         :::::::::::::::::::::::::::::::::::::::::::::::::::::
         ::                  THERMODYNAMIC                  ::
         :::::::::::::::::::::::::::::::::::::::::::::::::::::
         :: total free energy         -23.383501803261 Eh   ::
         ::.................................................::
         :: total energy              -23.409041327801 Eh   ::
         :: zero point energy           0.060277677909 Eh   ::
         :: G(RRHO) w/o ZPVE           -0.034738153369 Eh   ::
         :: G(RRHO) contrib.            0.025539524540 Eh   ::
         :::::::::::::::::::::::::::::::::::::::::::::::::::::

           -------------------------------------------------
          | TOTAL ENERGY              -23.409041327801 Eh   |
          | TOTAL ENTHALPY            -23.339157174487 Eh   |
          | TOTAL FREE ENERGY         -23.383501803261 Eh   |
          | GRADIENT NORM               0.000859217366 Eh/α |
          | HOMO-LUMO GAP               4.641296060578 eV   |
           -------------------------------------------------

 * finished run on 2025/10/18 at 21:19:10.177
normal termination of xtb
