                         Program Version 5.0.4 -  RELEASE  -
|  1> !OPT PBE def2-TZVP CPCM(water)
|  2>
|  3> *xyz -1 1
|  4> C     -5.335240   -3.653732    0.536902
|  5> C     -6.359137   -4.233313    1.177839
|  6> O     -8.301524   -5.548166    1.267391
|  7> H     -5.207352   -3.799964   -0.532331
|  8> O     -7.244312   -5.315284   -0.749880
|  9> C     -7.403413   -5.121176    0.486659
| 10> H     -4.622187   -3.034403    1.064586
| 11> H     -6.489152   -4.087492    2.245415
| 12> *
| 13>
| 14>                          ****END OF INPUT****
 Total Charge           Charge          ....   -1
 Multiplicity           Mult            ....    1
 Number of Electrons    NEL             ....   38
FINAL SINGLE POINT ENERGY      -266.516789618646
FINAL SINGLE POINT ENERGY      -266.517653939410
FINAL SINGLE POINT ENERGY      -266.516150620891
FINAL SINGLE POINT ENERGY      -266.517833248809
FINAL SINGLE POINT ENERGY      -266.517872091368
FINAL SINGLE POINT ENERGY      -266.517886872687
FINAL SINGLE POINT ENERGY      -266.517887640435
                    ***********************HURRAY********************

CARTESIAN COORDINATES (ANGSTROEM)
---------------------------------
  C     -5.330356   -3.648084    0.540344
  C     -6.354604   -4.236673    1.169829
  O     -8.316302   -5.550279    1.256227
  H     -5.190175   -3.783512   -0.535168
  O     -7.276321   -5.344927   -0.746662
  C     -7.395541   -5.115337    0.494266
  H     -4.609646   -3.020914    1.070343
  H     -6.489372   -4.093804    2.247402

 Multiplicity           Mult            ....    1
 Number of Electrons    NEL             ....   38
 Basis Dimension        Dim             ....  173

ORBITAL ENERGIES
----------------

  NO   OCC          E(Eh)            E(eV)
   0   2.0000     -18.677563      -508.2423
   1   2.0000     -18.676435      -508.2116
   2   2.0000      -9.945713      -270.6366
   3   2.0000      -9.874041      -268.6863
   4   2.0000      -9.873419      -268.6694
   5   2.0000      -0.915653       -24.9162
   6   2.0000      -0.832021       -22.6405
   7   2.0000      -0.682741       -18.5783
   8   2.0000      -0.532193       -14.4817
   9   2.0000      -0.436578       -11.8799
  10   2.0000      -0.391019       -10.6402
  11   2.0000      -0.370903       -10.0928
  12   2.0000      -0.341379        -9.2894
  13   2.0000      -0.333872        -9.0851
  14   2.0000      -0.307974        -8.3804
  15   2.0000      -0.233487        -6.3535
  16   2.0000      -0.204026        -5.5518
  17   2.0000      -0.189809        -5.1650
  18   2.0000      -0.175842        -4.7849
  19   0.0000      -0.050638        -1.3779
  20   0.0000       0.062639         1.7045
  21   0.0000       0.074539         2.0283
  22   0.0000       0.080114         2.1800
  23   0.0000       0.094261         2.5650

MULLIKEN ATOMIC CHARGES
-----------------------
   0 C :   -0.296312
   1 C :   -0.197299
   2 O :   -0.536849
   3 H :    0.124707
   4 O :   -0.526329
   5 C :    0.182985
   6 H :    0.140459
   7 H :    0.108638
Sum of atomic charges:   -1.0000000

LOEWDIN ATOMIC CHARGES
----------------------
   0 C :   -0.216091
   1 C :   -0.215541
   2 O :   -0.130386
   3 H :    0.122051
   4 O :   -0.125898
   5 C :   -0.697297
   6 H :    0.124917
   7 H :    0.138246

  Mayer bond orders larger than 0.100000
B(  0-C ,  1-C ) :   1.8903 B(  0-C ,  3-H ) :   0.9438 B(  0-C ,  6-H ) :   0.9421
B(  1-C ,  4-O ) :  -0.1240 B(  1-C ,  5-C ) :   0.9463 B(  1-C ,  7-H ) :   0.9335
B(  2-O ,  5-C ) :   1.8154 B(  4-O ,  5-C ) :   1.8771

FINAL SINGLE POINT ENERGY      -266.517888028577

DIPOLE MOMENT
-------------
                                X             Y             Z
Electronic contribution:     -2.43579      -1.81389      -0.40985
Nuclear contribution   :      4.30302       3.28125       1.11968
                        -----------------------------------------
Total Dipole Moment    :      1.86723       1.46737       0.70983
                        -----------------------------------------
Magnitude (a.u.)       :      2.47862
Magnitude (Debye)      :      6.30016

Rotational constants in cm-1:     0.369009     0.145108     0.104164
Rotational constants in MHz : 11062.608003  4350.233672  3122.762158

                             ****ORCA TERMINATED NORMALLY****
TOTAL RUN TIME: 0 days 0 hours 2 minutes 54 seconds 473 msec
