   * xtb version 6.7.1 (edcfbbe) compiled by 'albert@albert-system' on 2024-07-22

   ID    Z sym.   atoms
    1    6 C      1-6
    2    8 O      7, 13-15
    3    1 H      8-10, 12, 16, 17
    4    7 N      11

          program call               : xtb tb_lite_results_shiftn0p1_gp393_b0_rot180_complex.xyz --ohess --chrg -1 --alpb water
      * Solvation model:               ALPB
        Solvent                        water
        Solvent mass                       1.8000E+01 g/mol
          :  Hamiltonian                  GFN2-xTB          :
 * total energy  :   -35.3100676 Eh     change       -0.5832135E-10 Eh
 * total energy  :   -35.3143196 Eh     change       -0.4251997E-02 Eh
 * total energy  :   -35.3149705 Eh     change       -0.6509569E-03 Eh
 * total energy  :   -35.3150700 Eh     change       -0.9943856E-04 Eh
 * total energy  :   -35.3151159 Eh     change       -0.4596729E-04 Eh
 * total energy  :   -35.3151241 Eh     change       -0.8133285E-05 Eh
 * total energy  :   -35.3151335 Eh     change       -0.9391265E-05 Eh
 * total energy  :   -35.3151426 Eh     change       -0.9108348E-05 Eh
 * total energy  :   -35.3151480 Eh     change       -0.5452785E-05 Eh
 * total energy  :   -35.3151532 Eh     change       -0.5143180E-05 Eh
 * total energy  :   -35.3151573 Eh     change       -0.4134447E-05 Eh
   *** GEOMETRY OPTIMIZATION CONVERGED AFTER 11 ITERATIONS ***

 final structure:
================
17
 xtb: 6.7.1 (edcfbbe)
C           -2.08162540032679       -2.80302539863318        1.52169376994096
C           -2.52002504832400       -2.17040313143448        0.37735673633115
C           -3.71187106535513       -2.52593836352396       -0.22500511387295
C           -4.45989085319115       -3.55219827139449        0.36327879200790
C           -4.03808808276767       -4.20341104211066        1.51349196403607
C           -2.82024494716787       -3.84980094842550        2.14680664517973
O           -2.41867903065709       -4.43459413814293        3.21040660930765
H           -1.14771232732596       -2.51514021316890        1.98362402393535
H           -1.92039082500053       -1.38314779403258       -0.05407456386247
H           -4.07459069092706       -2.04484446086495       -1.11771351143275
N           -5.67766767809008       -3.93239821241763       -0.23136426235274
H           -4.64109815205756       -4.99124158948886        1.93977941449147
O           -6.05660121515893       -3.35247265103752       -1.24804118951671
O           -6.34270067709218       -4.83544580111296        0.27370124052713
O           -0.19587939634695       -3.47983962894228        4.35205402226001
H           -0.99619481379908       -3.86470926058796        3.91044321542701
H           -0.37068264911174       -3.56243599898698        5.29498192352482

          :  Hamiltonian                  GFN2-xTB          :
         :: gradient norm              0.000590478611 Eh/a0 ::
         :: HOMO-LUMO gap              0.896896068930 eV    ::
         :: SCC energy               -35.676075925358 Eh    ::
         :: -> dispersion             -0.014329723774 Eh    ::
         :: -> Gsolv                  -0.090718127174 Eh    ::
         :: repulsion energy           0.360918623224 Eh    ::

    * Orbital Energies and Occupations

         #    Occupation            Energy/Eh            Energy/eV
      -------------------------------------------------------------
         1        2.0000           -0.7636749             -20.7807
       ...           ...                  ...                  ...
        18        2.0000           -0.4889822             -13.3059
        19        2.0000           -0.4818218             -13.1110
        20        2.0000           -0.4735390             -12.8857
        21        2.0000           -0.4697432             -12.7824
        22        2.0000           -0.4483603             -12.2005
        23        2.0000           -0.4457588             -12.1297
        24        2.0000           -0.4442917             -12.0898
        25        2.0000           -0.4337384             -11.8026
        26        2.0000           -0.4313356             -11.7372
        27        2.0000           -0.4149940             -11.2926
        28        2.0000           -0.4113175             -11.1925
        29        2.0000           -0.3589398              -9.7672
        30        2.0000           -0.3489762              -9.4961 (HOMO)
        31                         -0.3160158              -8.5992 (LUMO)
        32                         -0.2118402              -5.7645
        33                         -0.1923196              -5.2333
        34                         -0.0802774              -2.1845
        35                          0.0195818               0.5328
        36                          0.1137214               3.0945
        37                          0.1404712               3.8224
        38                          0.1546585               4.2085
        39                          0.1889629               5.1419
        40                          0.1943755               5.2892
        41                          0.2209805               6.0132
       ...                                ...                  ...
        50                          0.6751714              18.3723
      -------------------------------------------------------------
                  HL-Gap            0.0329604 Eh            0.8969 eV

     #   Z          covCN         q      C6AA      α(0)
     1   6 C        2.917    -0.071    29.781     8.949
     2   6 C        2.915    -0.037    28.918     8.818
     3   6 C        2.917    -0.055    29.364     8.886
     4   6 C        2.910    -0.002    28.074     8.688
     5   6 C        2.918    -0.080    29.993     8.981
     6   6 C        2.832     0.183    24.081     8.041
     7   8 O        0.857    -0.664    27.733     7.061
     8   1 H        0.926     0.045     2.387     2.416
     9   1 H        0.926     0.053     2.280     2.361
    10   1 H        0.926     0.060     2.196     2.317
    11   7 N        2.764     0.533    13.668     5.491
    12   1 H        0.926     0.035     2.514     2.479
    13   8 O        0.929    -0.467    23.036     6.437
    14   8 O        0.929    -0.474    23.182     6.457
    15   8 O        1.606    -0.708    27.935     7.133
    16   1 H        0.801     0.307     0.700     1.315
    17   1 H        0.805     0.342     0.607     1.223

Wiberg/Mayer (AO) data.
largest (>0.10) Wiberg bond orders for each atom

     #   Z sym  total        # sym  WBO       # sym  WBO       # sym  WBO
 ---------------------------------------------------------------------------
     1   6 C    3.989 --     2 C    1.470     6 C    1.229     8 H    0.968
     2   6 C    3.990 --     1 C    1.470     3 C    1.437     9 H    0.967
     3   6 C    3.984 --     2 C    1.437     4 C    1.301    10 H    0.965
     4   6 C    3.942 --     5 C    1.373     3 C    1.301    11 N    1.036
     5   6 C    3.985 --     4 C    1.373     6 C    1.262    12 H    0.967
                             7 O    0.103
     6   6 C    3.967 --     7 O    1.376     5 C    1.262     1 C    1.229
     7   8 O    1.775 --     6 C    1.376     5 C    0.103
     8   1 H    0.998 --     1 C    0.968
     9   1 H    0.997 --     2 C    0.967
    10   1 H    0.996 --     3 C    0.965
    11   7 N    3.897 --    14 O    1.393    13 O    1.391     4 C    1.036
    12   1 H    0.999 --     5 C    0.967
    13   8 O    1.850 --    11 N    1.391    14 O    0.296
    14   8 O    1.853 --    11 N    1.393    13 O    0.296
    15   8 O    1.749 --    17 H    0.882    16 H    0.826
    16   1 H    0.906 --    15 O    0.826
    17   1 H    0.883 --    15 O    0.882
 ---------------------------------------------------------------------------

molecular dipole:
                 x           y           z       tot (Debye)
 q only:        7.224       8.198      -3.065
   full:        6.972       8.130      -3.083      28.326

 projected vibrational frequencies (cm⁻¹)
eigval :       -0.00    -0.00    -0.00     0.00     0.00     0.00
eigval :       29.21    51.79    60.96   147.37   161.04   165.41
eigval :      192.43   248.30   383.64   385.42   446.84   494.69
eigval :      501.53   511.41   562.73   626.72   659.54   723.31
eigval :      764.24   783.71   787.50   813.16   876.33   915.31
eigval :      963.11   975.36  1113.30  1124.30  1174.50  1240.36
eigval :     1289.96  1304.04  1348.55  1434.77  1495.28  1514.23
eigval :     1516.93  1533.59  1577.42  2956.32  3074.75  3086.44
eigval :     3093.42  3118.41  3610.54

   temp. (K)  partition function   enthalpy   heat capacity  entropy
                                   cal/mol     cal/K/mol   cal/K/mol   J/K/mol
 298.15  VIB  0.631E+04             5195.289     31.757     32.279
         ROT  0.106E+07              888.752      2.981     30.553
         INT  0.669E+10             6084.042     34.738     62.832
         TR   0.189E+28             1481.254      4.968     41.027
         TOT                        7565.2957    39.7062   103.8590   434.5460

       T/K    H(0)-H(T)+PV         H(T)/Eh          T*S/Eh         G(T)/Eh
   ------------------------------------------------------------------------
    298.15    0.120561E-01    0.125596E+00    0.493468E-01    0.762490E-01
   ------------------------------------------------------------------------

         :::::::::::::::::::::::::::::::::::::::::::::::::::::
         ::                  THERMODYNAMIC                  ::
         :::::::::::::::::::::::::::::::::::::::::::::::::::::
         :: total free energy         -35.238908331814 Eh   ::
         ::.................................................::
         :: total energy              -35.315157301128 Eh   ::
         :: zero point energy           0.113539653678 Eh   ::
         :: G(RRHO) w/o ZPVE           -0.037290684364 Eh   ::
         :: G(RRHO) contrib.            0.076248969314 Eh   ::
         :::::::::::::::::::::::::::::::::::::::::::::::::::::

           -------------------------------------------------
          | TOTAL ENERGY              -35.315157301128 Eh   |
          | TOTAL ENTHALPY            -35.189561581338 Eh   |
          | TOTAL FREE ENERGY         -35.238908331814 Eh   |
          | GRADIENT NORM               0.000590631677 Eh/α |
          | HOMO-LUMO GAP               0.896898337538 eV   |
           -------------------------------------------------

 * finished run on 2025/10/18 at 04:48:22.949
normal termination of xtb
