   * xtb version 6.7.1 (edcfbbe) compiled by 'albert@albert-system' on 2024-07-22

   ID    Z sym.   atoms
    1    6 C      1-6
    2    8 O      7, 13-15
    3    1 H      8-10, 12, 16, 17
    4    7 N      11

          program call               : xtb tb_lite_results_shiftn0p05_gp393_b0_rot180_complex.xyz --ohess --chrg -1 --alpb water
      * Solvation model:               ALPB
        Solvent                        water
        Solvent mass                       1.8000E+01 g/mol
          :  Hamiltonian                  GFN2-xTB          :
 * total energy  :   -35.3100655 Eh     change       -0.5106671E-10 Eh
 * total energy  :   -35.3142070 Eh     change       -0.4141498E-02 Eh
 * total energy  :   -35.3149196 Eh     change       -0.7126587E-03 Eh
 * total energy  :   -35.3150526 Eh     change       -0.1329781E-03 Eh
 * total energy  :   -35.3151149 Eh     change       -0.6228214E-04 Eh
 * total energy  :   -35.3151240 Eh     change       -0.9080114E-05 Eh
 * total energy  :   -35.3151343 Eh     change       -0.1038477E-04 Eh
 * total energy  :   -35.3151427 Eh     change       -0.8334291E-05 Eh
 * total energy  :   -35.3151479 Eh     change       -0.5266556E-05 Eh
 * total energy  :   -35.3151535 Eh     change       -0.5539409E-05 Eh
 * total energy  :   -35.3151585 Eh     change       -0.4982862E-05 Eh
   *** GEOMETRY OPTIMIZATION CONVERGED AFTER 11 ITERATIONS ***

 final structure:
================
17
 xtb: 6.7.1 (edcfbbe)
C           -2.07608367670060       -2.79738721399671        1.52355747760152
C           -2.51675866875117       -2.16745998329540        0.37863422978851
C           -3.70869437416701       -2.52609445529226       -0.22170952679699
C           -4.45432182438976       -3.55255381287092        0.36928115061896
C           -4.03012304830515       -4.20111518598320        1.52011565089099
C           -2.81207391105542       -3.84445488566170        2.15135968406762
O           -2.40807727410227       -4.42632684014880        3.21556045554096
H           -1.14214637836786       -2.50717846101931        1.98393862628936
H           -1.91888670302080       -1.38000431802208       -0.05481915935563
H           -4.07322557196056       -2.04723008640105       -1.11485249206077
N           -5.67213773358407       -3.93558926881203       -0.22325798081000
H           -4.63142124595613       -4.98913038360332        1.94847126646566
O           -6.05329832891530       -3.35772573870810       -1.24024165116340
O           -6.33483851979102       -4.83923093967054        0.28370144065835
O           -0.18183655764997       -3.46720264825664        4.34852563985088
H           -0.98294251435708       -3.85390239738602        3.91025769051055
H           -0.35276102443586       -3.54910686422136        5.29225063479122

          :  Hamiltonian                  GFN2-xTB          :
         :: gradient norm              0.000593050269 Eh/a0 ::
         :: HOMO-LUMO gap              0.897000809968 eV    ::
         :: SCC energy               -35.676120855117 Eh    ::
         :: -> dispersion             -0.014330312396 Eh    ::
         :: -> Gsolv                  -0.090722156192 Eh    ::
         :: repulsion energy           0.360962394391 Eh    ::

    * Orbital Energies and Occupations

         #    Occupation            Energy/Eh            Energy/eV
      -------------------------------------------------------------
         1        2.0000           -0.7636751             -20.7807
       ...           ...                  ...                  ...
        18        2.0000           -0.4889679             -13.3055
        19        2.0000           -0.4818248             -13.1111
        20        2.0000           -0.4735482             -12.8859
        21        2.0000           -0.4697354             -12.7821
        22        2.0000           -0.4483529             -12.2003
        23        2.0000           -0.4457469             -12.1294
        24        2.0000           -0.4442677             -12.0891
        25        2.0000           -0.4337232             -11.8022
        26        2.0000           -0.4313368             -11.7373
        27        2.0000           -0.4150290             -11.2935
        28        2.0000           -0.4113046             -11.1922
        29        2.0000           -0.3589261              -9.7669
        30        2.0000           -0.3489569              -9.4956 (HOMO)
        31                         -0.3159926              -8.5986 (LUMO)
        32                         -0.2118170              -5.7638
        33                         -0.1922965              -5.2327
        34                         -0.0802589              -2.1840
        35                          0.0196877               0.5357
        36                          0.1136794               3.0934
        37                          0.1404652               3.8223
        38                          0.1547038               4.2097
        39                          0.1890003               5.1430
        40                          0.1944266               5.2906
        41                          0.2210284               6.0145
       ...                                ...                  ...
        50                          0.6752354              18.3741
      -------------------------------------------------------------
                  HL-Gap            0.0329643 Eh            0.8970 eV

     #   Z          covCN         q      C6AA      α(0)
     1   6 C        2.917    -0.071    29.782     8.949
     2   6 C        2.915    -0.037    28.918     8.818
     3   6 C        2.917    -0.055    29.364     8.886
     4   6 C        2.910    -0.002    28.075     8.688
     5   6 C        2.918    -0.080    29.994     8.981
     6   6 C        2.832     0.183    24.081     8.041
     7   8 O        0.857    -0.664    27.733     7.061
     8   1 H        0.926     0.045     2.387     2.416
     9   1 H        0.926     0.053     2.280     2.361
    10   1 H        0.926     0.060     2.196     2.317
    11   7 N        2.764     0.533    13.668     5.491
    12   1 H        0.926     0.035     2.514     2.480
    13   8 O        0.929    -0.467    23.037     6.437
    14   8 O        0.929    -0.474    23.182     6.457
    15   8 O        1.606    -0.708    27.932     7.133
    16   1 H        0.801     0.307     0.700     1.315
    17   1 H        0.805     0.342     0.607     1.223

Wiberg/Mayer (AO) data.
largest (>0.10) Wiberg bond orders for each atom

     #   Z sym  total        # sym  WBO       # sym  WBO       # sym  WBO
 ---------------------------------------------------------------------------
     1   6 C    3.989 --     2 C    1.470     6 C    1.229     8 H    0.968
     2   6 C    3.990 --     1 C    1.470     3 C    1.437     9 H    0.967
     3   6 C    3.984 --     2 C    1.437     4 C    1.301    10 H    0.965
     4   6 C    3.942 --     5 C    1.373     3 C    1.301    11 N    1.037
     5   6 C    3.985 --     4 C    1.373     6 C    1.262    12 H    0.967
                             7 O    0.103
     6   6 C    3.967 --     7 O    1.376     5 C    1.262     1 C    1.229
     7   8 O    1.775 --     6 C    1.376     5 C    0.103
     8   1 H    0.998 --     1 C    0.968
     9   1 H    0.997 --     2 C    0.967
    10   1 H    0.996 --     3 C    0.965
    11   7 N    3.897 --    14 O    1.393    13 O    1.391     4 C    1.037
    12   1 H    0.999 --     5 C    0.967
    13   8 O    1.850 --    11 N    1.391    14 O    0.296
    14   8 O    1.853 --    11 N    1.393    13 O    0.296
    15   8 O    1.749 --    17 H    0.882    16 H    0.827
    16   1 H    0.906 --    15 O    0.827
    17   1 H    0.883 --    15 O    0.882
 ---------------------------------------------------------------------------

molecular dipole:
                 x           y           z       tot (Debye)
 q only:        7.209       8.192      -3.074
   full:        6.958       8.123      -3.091      28.298

 projected vibrational frequencies (cm⁻¹)
eigval :       -0.00    -0.00    -0.00    -0.00     0.00     0.00
eigval :       28.95    51.50    61.15   147.39   164.83   166.89
eigval :      192.39   248.10   383.61   385.46   446.83   494.67
eigval :      501.52   511.39   562.72   626.70   659.57   723.27
eigval :      764.11   783.66   787.50   813.12   876.34   915.29
eigval :      963.08   975.40  1113.36  1124.41  1174.50  1240.37
eigval :     1290.14  1304.01  1348.65  1434.83  1495.43  1514.23
eigval :     1517.12  1533.28  1577.47  2958.52  3074.96  3086.65
eigval :     3093.41  3118.66  3609.99

   temp. (K)  partition function   enthalpy   heat capacity  entropy
                                   cal/mol     cal/K/mol   cal/K/mol   J/K/mol
 298.15  VIB  0.625E+04             5190.437     31.746     32.224
         ROT  0.106E+07              888.752      2.981     30.553
         INT  0.662E+10             6079.189     34.727     62.776
         TR   0.189E+28             1481.254      4.968     41.027
         TOT                        7560.4429    39.6955   103.8032   434.3127

       T/K    H(0)-H(T)+PV         H(T)/Eh          T*S/Eh         G(T)/Eh
   ------------------------------------------------------------------------
    298.15    0.120483E-01    0.125605E+00    0.493203E-01    0.762843E-01
   ------------------------------------------------------------------------

         :::::::::::::::::::::::::::::::::::::::::::::::::::::
         ::                  THERMODYNAMIC                  ::
         :::::::::::::::::::::::::::::::::::::::::::::::::::::
         :: total free energy         -35.238874146589 Eh   ::
         ::.................................................::
         :: total energy              -35.315158459580 Eh   ::
         :: zero point energy           0.113556241412 Eh   ::
         :: G(RRHO) w/o ZPVE           -0.037271928421 Eh   ::
         :: G(RRHO) contrib.            0.076284312992 Eh   ::
         :::::::::::::::::::::::::::::::::::::::::::::::::::::

           -------------------------------------------------
          | TOTAL ENERGY              -35.315158459580 Eh   |
          | TOTAL ENTHALPY            -35.189553885520 Eh   |
          | TOTAL FREE ENERGY         -35.238874146589 Eh   |
          | GRADIENT NORM               0.000593067161 Eh/α |
          | HOMO-LUMO GAP               0.897003490414 eV   |
           -------------------------------------------------

 * finished run on 2025/10/18 at 04:48:33.753
normal termination of xtb
