   * xtb version 6.7.1 (edcfbbe) compiled by 'albert@albert-system' on 2024-07-22

   ID    Z sym.   atoms
    1    6 C      1-6
    2    8 O      7, 13-15
    3    1 H      8-10, 12, 16, 17
    4    7 N      11

          program call               : xtb tb_lite_results_shiftn0p1_gp393_b0_rot90_complex.xyz --ohess --chrg -1 --alpb water
      * Solvation model:               ALPB
        Solvent                        water
        Solvent mass                       1.8000E+01 g/mol
          :  Hamiltonian                  GFN2-xTB          :
 * total energy  :   -35.3099797 Eh     change       -0.1004139E-08 Eh
 * total energy  :   -35.3142637 Eh     change       -0.4284011E-02 Eh
 * total energy  :   -35.3149070 Eh     change       -0.6432561E-03 Eh
 * total energy  :   -35.3150068 Eh     change       -0.9985334E-04 Eh
 * total energy  :   -35.3150417 Eh     change       -0.3486207E-04 Eh
 * total energy  :   -35.3150580 Eh     change       -0.1630697E-04 Eh
 * total energy  :   -35.3150700 Eh     change       -0.1196631E-04 Eh
 * total energy  :   -35.3150842 Eh     change       -0.1421187E-04 Eh
 * total energy  :   -35.3150991 Eh     change       -0.1490400E-04 Eh
 * total energy  :   -35.3151186 Eh     change       -0.1955692E-04 Eh
 * total energy  :   -35.3151579 Eh     change       -0.4592003E-05 Eh
 * total energy  :   -35.3151646 Eh     change       -0.6726477E-05 Eh
 * total energy  :   -35.3151688 Eh     change       -0.4201652E-05 Eh
 * total energy  :   -35.3151808 Eh     change       -0.1201832E-04 Eh
 * total energy  :   -35.3151859 Eh     change       -0.5099695E-05 Eh
 * total energy  :   -35.3151514 Eh     change        0.3447274E-04 Eh
 * total energy  :   -35.3152044 Eh     change       -0.5299881E-04 Eh
 * total energy  :   -35.3152104 Eh     change       -0.5953416E-05 Eh
 * total energy  :   -35.3152118 Eh     change       -0.1392846E-05 Eh
   *** GEOMETRY OPTIMIZATION CONVERGED AFTER 24 ITERATIONS ***

 final structure:
================
17
 xtb: 6.7.1 (edcfbbe)
C           -2.07753746389804       -2.79132201090955        1.49958386600060
C           -2.50968919840725       -2.19012715488264        0.33618166680275
C           -3.70195108041744       -2.55649543495667       -0.25873443551430
C           -4.45804479019940       -3.55939254388657        0.35874977186387
C           -4.04290895996195       -4.17888212097315        1.52861743353436
C           -2.82322241653282       -3.81574697027525        2.15286250660999
O           -2.42428019443732       -4.37577584144436        3.23048626542269
H           -1.14351915223926       -2.49474945524386        1.95567743843415
H           -1.90454826635795       -1.41940229703345       -0.11688392835747
H           -4.05924446055437       -2.10118578203315       -1.16695922371761
N           -5.67696323225345       -3.94913787008331       -0.22713982699099
H           -4.65279964817870       -4.94880250037893        1.97725882422123
O           -6.05194605822021       -3.39468540201102       -1.25942827297243
O           -6.34511082340935       -4.83852906355294        0.29784448580485
O           -0.08659191954176       -3.55282797883011        4.23428435273391
H           -0.96391050714108       -3.84194924690944        3.87284651576893
H            0.18193360564277       -4.26030500727459        4.82790249991375

          :  Hamiltonian                  GFN2-xTB          :
         :: gradient norm              0.000837936932 Eh/a0 ::
         :: HOMO-LUMO gap              0.897648845549 eV    ::
         :: SCC energy               -35.676311014805 Eh    ::
         :: -> dispersion             -0.014327374481 Eh    ::
         :: -> Gsolv                  -0.090753805547 Eh    ::
         :: repulsion energy           0.361099233429 Eh    ::

    * Orbital Energies and Occupations

         #    Occupation            Energy/Eh            Energy/eV
      -------------------------------------------------------------
         1        2.0000           -0.7636036             -20.7787
       ...           ...                  ...                  ...
        18        2.0000           -0.4889573             -13.3052
        19        2.0000           -0.4817755             -13.1098
        20        2.0000           -0.4734859             -12.8842
        21        2.0000           -0.4696685             -12.7803
        22        2.0000           -0.4483900             -12.2013
        23        2.0000           -0.4456878             -12.1278
        24        2.0000           -0.4441775             -12.0867
        25        2.0000           -0.4336483             -11.8002
        26        2.0000           -0.4313178             -11.7368
        27        2.0000           -0.4149587             -11.2916
        28        2.0000           -0.4112835             -11.1916
        29        2.0000           -0.3589969              -9.7688
        30        2.0000           -0.3489709              -9.4960 (HOMO)
        31                         -0.3159830              -8.5983 (LUMO)
        32                         -0.2117640              -5.7624
        33                         -0.1922810              -5.2322
        34                         -0.0802069              -2.1825
        35                          0.0196308               0.5342
        36                          0.1135070               3.0887
        37                          0.1408564               3.8329
        38                          0.1550223               4.2184
        39                          0.1892921               5.1509
        40                          0.1947471               5.2993
        41                          0.2210531               6.0152
       ...                                ...                  ...
        50                          0.6754263              18.3793
      -------------------------------------------------------------
                  HL-Gap            0.0329880 Eh            0.8976 eV

     #   Z          covCN         q      C6AA      α(0)
     1   6 C        2.917    -0.071    29.779     8.949
     2   6 C        2.915    -0.037    28.916     8.818
     3   6 C        2.917    -0.055    29.364     8.886
     4   6 C        2.910    -0.002    28.073     8.688
     5   6 C        2.918    -0.080    29.994     8.981
     6   6 C        2.832     0.183    24.081     8.041
     7   8 O        0.857    -0.663    27.720     7.059
     8   1 H        0.926     0.045     2.387     2.416
     9   1 H        0.926     0.053     2.280     2.361
    10   1 H        0.926     0.060     2.194     2.316
    11   7 N        2.765     0.533    13.669     5.491
    12   1 H        0.926     0.035     2.512     2.479
    13   8 O        0.929    -0.467    23.037     6.437
    14   8 O        0.929    -0.474    23.183     6.457
    15   8 O        1.606    -0.709    27.951     7.135
    16   1 H        0.801     0.307     0.701     1.315
    17   1 H        0.805     0.342     0.607     1.223

Wiberg/Mayer (AO) data.
largest (>0.10) Wiberg bond orders for each atom

     #   Z sym  total        # sym  WBO       # sym  WBO       # sym  WBO
 ---------------------------------------------------------------------------
     1   6 C    3.989 --     2 C    1.470     6 C    1.229     8 H    0.968
     2   6 C    3.990 --     1 C    1.470     3 C    1.437     9 H    0.967
     3   6 C    3.984 --     2 C    1.437     4 C    1.301    10 H    0.965
     4   6 C    3.942 --     5 C    1.373     3 C    1.301    11 N    1.037
     5   6 C    3.985 --     4 C    1.373     6 C    1.262    12 H    0.967
                             7 O    0.103
     6   6 C    3.967 --     7 O    1.376     5 C    1.262     1 C    1.229
     7   8 O    1.776 --     6 C    1.376     5 C    0.103
     8   1 H    0.998 --     1 C    0.968
     9   1 H    0.997 --     2 C    0.967
    10   1 H    0.996 --     3 C    0.965
    11   7 N    3.897 --    14 O    1.393    13 O    1.391     4 C    1.037
    12   1 H    0.999 --     5 C    0.967
    13   8 O    1.850 --    11 N    1.391    14 O    0.296
    14   8 O    1.853 --    11 N    1.393    13 O    0.296
    15   8 O    1.748 --    17 H    0.882    16 H    0.826
    16   1 H    0.906 --    15 O    0.826
    17   1 H    0.883 --    15 O    0.882
 ---------------------------------------------------------------------------

molecular dipole:
                 x           y           z       tot (Debye)
 q only:        7.457       7.812      -3.268
   full:        7.263       7.661      -3.325      28.132

 projected vibrational frequencies (cm⁻¹)
eigval :       -0.00    -0.00     0.00     0.00     0.00     0.00
eigval :     -111.88    26.12    43.04    59.39   146.81   165.85
eigval :      191.95   247.89   383.24   385.33   443.11   491.40
eigval :      501.16   511.56   562.95   626.47   659.83   722.33
eigval :      757.37   783.46   787.26   812.59   875.72   914.80
eigval :      962.95   975.42  1113.39  1124.51  1174.44  1240.33
eigval :     1290.02  1304.02  1348.90  1435.06  1495.79  1514.27
eigval :     1516.92  1533.72  1577.62  2952.96  3074.94  3086.72
eigval :     3093.05  3118.99  3618.88

   temp. (K)  partition function   enthalpy   heat capacity  entropy
                                   cal/mol     cal/K/mol   cal/K/mol   J/K/mol
 298.15  VIB  0.460E+04             4828.141     29.676     29.882
         ROT  0.106E+07              888.752      2.981     30.552
         INT  0.488E+10             5716.893     32.657     60.434
         TR   0.189E+28             1481.254      4.968     41.027
         TOT                        7198.1469    37.6255   101.4612   424.5138

       T/K    H(0)-H(T)+PV         H(T)/Eh          T*S/Eh         G(T)/Eh
   ------------------------------------------------------------------------
    298.15    0.114710E-01    0.124588E+00    0.482075E-01    0.763803E-01
   ------------------------------------------------------------------------

         :::::::::::::::::::::::::::::::::::::::::::::::::::::
         ::                  THERMODYNAMIC                  ::
         :::::::::::::::::::::::::::::::::::::::::::::::::::::
         :: total free energy         -35.238831441503 Eh   ::
         ::.................................................::
         :: total energy              -35.315211780648 Eh   ::
         :: zero point energy           0.113116867626 Eh   ::
         :: G(RRHO) w/o ZPVE           -0.036736528482 Eh   ::
         :: G(RRHO) contrib.            0.076380339145 Eh   ::
         :::::::::::::::::::::::::::::::::::::::::::::::::::::

           -------------------------------------------------
          | TOTAL ENERGY              -35.315211780648 Eh   |
          | TOTAL ENTHALPY            -35.190623935855 Eh   |
          | TOTAL FREE ENERGY         -35.238831441503 Eh   |
          | GRADIENT NORM               0.000837755462 Eh/α |
          | HOMO-LUMO GAP               0.897648092679 eV   |
           -------------------------------------------------

 * finished run on 2025/10/18 at 04:48:30.480
normal termination of xtb
