   * xtb version 6.7.1 (edcfbbe) compiled by 'albert@albert-system' on 2024-07-22

   ID    Z sym.   atoms
    1    6 C      1-6
    2    8 O      7, 13-15
    3    1 H      8-10, 12, 16, 17
    4    7 N      11

          program call               : xtb tb_lite_results_shiftn0p15_gp393_b0_rot90_complex.xyz --ohess --chrg -1 --alpb water
      * Solvation model:               ALPB
        Solvent                        water
        Solvent mass                       1.8000E+01 g/mol
          :  Hamiltonian                  GFN2-xTB          :
 * total energy  :   -35.3097744 Eh     change       -0.1271601E-08 Eh
 * total energy  :   -35.3143053 Eh     change       -0.4530911E-02 Eh
 * total energy  :   -35.3149367 Eh     change       -0.6313854E-03 Eh
 * total energy  :   -35.3150205 Eh     change       -0.8373268E-04 Eh
 * total energy  :   -35.3150471 Eh     change       -0.2668050E-04 Eh
 * total energy  :   -35.3150658 Eh     change       -0.1864850E-04 Eh
 * total energy  :   -35.3150759 Eh     change       -0.1008922E-04 Eh
 * total energy  :   -35.3150937 Eh     change       -0.1786787E-04 Eh
 * total energy  :   -35.3151122 Eh     change       -0.1841375E-04 Eh
 * total energy  :   -35.3151296 Eh     change       -0.1745116E-04 Eh
 * total energy  :   -35.3151466 Eh     change       -0.4705982E-05 Eh
 * total energy  :   -35.3151580 Eh     change       -0.1137609E-04 Eh
 * total energy  :   -35.3151652 Eh     change       -0.7218626E-05 Eh
 * total energy  :   -35.3151753 Eh     change       -0.1012789E-04 Eh
 * total energy  :   -35.3151908 Eh     change       -0.1551000E-04 Eh
 * total energy  :   -35.3151249 Eh     change        0.6588059E-04 Eh
 * total energy  :   -35.3151970 Eh     change       -0.7203647E-04 Eh
 * total energy  :   -35.3152016 Eh     change       -0.4600944E-05 Eh
 * total energy  :   -35.3152044 Eh     change       -0.2856883E-05 Eh
   *** GEOMETRY OPTIMIZATION CONVERGED AFTER 21 ITERATIONS ***

 final structure:
================
17
 xtb: 6.7.1 (edcfbbe)
C           -2.09658012432382       -2.78169989163941        1.51724813888003
C           -2.52804443976128       -2.17125335842351        0.35835139329941
C           -3.71480093750885       -2.54021315707072       -0.24584287003782
C           -4.46611367127861       -3.55531231342715        0.35728160868359
C           -4.05186090102667       -4.18370640177140        1.52274621915560
C           -2.83754109595165       -3.81847609879888        2.15603598720836
O           -2.43885040185661       -4.38785809517549        3.22904957679267
H           -1.16663447448186       -2.48337565841415        1.98042442240412
H           -1.92644331885744       -1.39148007627965       -0.08376737190535
H           -4.07113821252289       -2.07799707171406       -1.15098966629808
N           -5.67841939350794       -3.94941218370148       -0.23951566492407
H           -4.65790514903204       -4.96293261397291        1.96036795994256
O           -6.05257173263809       -3.38704299082454       -1.26779520819942
O           -6.34319841586809       -4.84768372395774        0.27441679415883
O           -0.08584715953261       -3.58856259135524        4.21303751039747
H           -0.97098306013381       -3.86945147536573        3.86352049373436
H            0.22228242498460       -4.33221239974320        4.73922719530980

          :  Hamiltonian                  GFN2-xTB          :
         :: gradient norm              0.000754389702 Eh/a0 ::
         :: HOMO-LUMO gap              0.898032934489 eV    ::
         :: SCC energy               -35.676268825027 Eh    ::
         :: -> dispersion             -0.014331629619 Eh    ::
         :: -> Gsolv                  -0.090774320514 Eh    ::
         :: repulsion energy           0.361064399428 Eh    ::

    * Orbital Energies and Occupations

         #    Occupation            Energy/Eh            Energy/eV
      -------------------------------------------------------------
         1        2.0000           -0.7636200             -20.7792
       ...           ...                  ...                  ...
        18        2.0000           -0.4889557             -13.3052
        19        2.0000           -0.4816584             -13.1066
        20        2.0000           -0.4734406             -12.8830
        21        2.0000           -0.4696896             -12.7809
        22        2.0000           -0.4483774             -12.2010
        23        2.0000           -0.4457127             -12.1285
        24        2.0000           -0.4441743             -12.0866
        25        2.0000           -0.4336411             -11.8000
        26        2.0000           -0.4312970             -11.7362
        27        2.0000           -0.4148439             -11.2885
        28        2.0000           -0.4112760             -11.1914
        29        2.0000           -0.3589902              -9.7686
        30        2.0000           -0.3489830              -9.4963 (HOMO)
        31                         -0.3159808              -8.5983 (LUMO)
        32                         -0.2117795              -5.7628
        33                         -0.1922894              -5.2325
        34                         -0.0802072              -2.1825
        35                          0.0195891               0.5330
        36                          0.1134203               3.0863
        37                          0.1408147               3.8318
        38                          0.1550558               4.2193
        39                          0.1893238               5.1518
        40                          0.1948107               5.3011
        41                          0.2210064               6.0139
       ...                                ...                  ...
        50                          0.6753283              18.3766
      -------------------------------------------------------------
                  HL-Gap            0.0330022 Eh            0.8980 eV

     #   Z          covCN         q      C6AA      α(0)
     1   6 C        2.917    -0.071    29.779     8.949
     2   6 C        2.915    -0.037    28.917     8.818
     3   6 C        2.917    -0.055    29.363     8.886
     4   6 C        2.910    -0.002    28.074     8.688
     5   6 C        2.918    -0.080    29.993     8.981
     6   6 C        2.832     0.183    24.081     8.041
     7   8 O        0.857    -0.663    27.723     7.059
     8   1 H        0.926     0.045     2.384     2.415
     9   1 H        0.926     0.053     2.280     2.361
    10   1 H        0.926     0.060     2.194     2.317
    11   7 N        2.764     0.533    13.668     5.491
    12   1 H        0.926     0.035     2.512     2.479
    13   8 O        0.929    -0.467    23.036     6.437
    14   8 O        0.929    -0.474    23.182     6.457
    15   8 O        1.606    -0.709    27.959     7.136
    16   1 H        0.801     0.307     0.701     1.315
    17   1 H        0.805     0.342     0.607     1.224

Wiberg/Mayer (AO) data.
largest (>0.10) Wiberg bond orders for each atom

     #   Z sym  total        # sym  WBO       # sym  WBO       # sym  WBO
 ---------------------------------------------------------------------------
     1   6 C    3.989 --     2 C    1.469     6 C    1.229     8 H    0.968
     2   6 C    3.990 --     1 C    1.469     3 C    1.437     9 H    0.967
     3   6 C    3.985 --     2 C    1.437     4 C    1.301    10 H    0.965
     4   6 C    3.942 --     5 C    1.373     3 C    1.301    11 N    1.037
     5   6 C    3.985 --     4 C    1.373     6 C    1.262    12 H    0.967
                             7 O    0.103
     6   6 C    3.967 --     7 O    1.376     5 C    1.262     1 C    1.229
     7   8 O    1.776 --     6 C    1.376     5 C    0.103
     8   1 H    0.998 --     1 C    0.968
     9   1 H    0.997 --     2 C    0.967
    10   1 H    0.996 --     3 C    0.965
    11   7 N    3.897 --    14 O    1.393    13 O    1.391     4 C    1.037
    12   1 H    0.999 --     5 C    0.967
    13   8 O    1.850 --    11 N    1.391    14 O    0.296
    14   8 O    1.853 --    11 N    1.393    13 O    0.296
    15   8 O    1.748 --    17 H    0.882    16 H    0.825
    16   1 H    0.906 --    15 O    0.825
    17   1 H    0.883 --    15 O    0.882
 ---------------------------------------------------------------------------

molecular dipole:
                 x           y           z       tot (Debye)
 q only:        7.487       7.816      -3.284
   full:        7.299       7.660      -3.350      28.209

 projected vibrational frequencies (cm⁻¹)
eigval :       -0.00    -0.00    -0.00     0.00     0.00     0.00
eigval :       15.30    26.19    45.19    60.94   146.17   166.16
eigval :      191.81   248.49   383.16   385.28   446.69   497.11
eigval :      501.22   516.53   563.25   626.11   659.78   722.92
eigval :      764.95   784.46   787.22   812.15   875.40   914.92
eigval :      962.96   975.35  1113.38  1124.41  1174.64  1240.28
eigval :     1289.90  1304.22  1348.66  1434.94  1495.53  1514.43
eigval :     1516.82  1534.83  1577.53  2948.13  3075.23  3086.98
eigval :     3092.97  3118.64  3622.04

   temp. (K)  partition function   enthalpy   heat capacity  entropy
                                   cal/mol     cal/K/mol   cal/K/mol   J/K/mol
 298.15  VIB  0.600E+05             5385.494     30.699     34.556
         ROT  0.106E+07              888.752      2.981     30.550
         INT  0.635E+11             6274.247     33.680     65.107
         TR   0.189E+28             1481.254      4.968     41.027
         TOT                        7755.5007    38.6481   106.1337   444.0632

       T/K    H(0)-H(T)+PV         H(T)/Eh          T*S/Eh         G(T)/Eh
   ------------------------------------------------------------------------
    298.15    0.123592E-01    0.125569E+00    0.504275E-01    0.751413E-01
   ------------------------------------------------------------------------

         :::::::::::::::::::::::::::::::::::::::::::::::::::::
         ::                  THERMODYNAMIC                  ::
         :::::::::::::::::::::::::::::::::::::::::::::::::::::
         :: total free energy         -35.240063116576 Eh   ::
         ::.................................................::
         :: total energy              -35.315204425216 Eh   ::
         :: zero point energy           0.113209658079 Eh   ::
         :: G(RRHO) w/o ZPVE           -0.038068349439 Eh   ::
         :: G(RRHO) contrib.            0.075141308640 Eh   ::
         :::::::::::::::::::::::::::::::::::::::::::::::::::::

           -------------------------------------------------
          | TOTAL ENERGY              -35.315204425216 Eh   |
          | TOTAL ENTHALPY            -35.189635590061 Eh   |
          | TOTAL FREE ENERGY         -35.240063116576 Eh   |
          | GRADIENT NORM               0.000754083236 Eh/α |
          | HOMO-LUMO GAP               0.898036633597 eV   |
           -------------------------------------------------

 * finished run on 2025/10/18 at 04:48:26.526
normal termination of xtb
