   * xtb version 6.7.1 (edcfbbe) compiled by 'albert@albert-system' on 2024-07-22

   ID    Z sym.   atoms
    1    6 C      1-6
    2    8 O      7, 13, 14
    3    1 H      8-10, 12
    4    7 N      11

          program call               : xtb tb_lite_results_shiftn0p1_gp393_b0_rot180_solute.xyz --ohess --chrg -1
          :  Hamiltonian                  GFN2-xTB          :
 * total energy  :   -30.1359319 Eh     change       -0.1635069E-08 Eh
 * total energy  :   -30.1397448 Eh     change       -0.3812926E-02 Eh
 * total energy  :   -30.1401999 Eh     change       -0.4550916E-03 Eh
 * total energy  :   -30.1402488 Eh     change       -0.4885459E-04 Eh
 * total energy  :   -30.1402630 Eh     change       -0.1429317E-04 Eh
 * total energy  :   -30.1402616 Eh     change        0.1419048E-05 Eh
 * total energy  :   -30.1402635 Eh     change       -0.1891843E-05 Eh
   *** GEOMETRY OPTIMIZATION CONVERGED AFTER 7 ITERATIONS ***

 final structure:
================
14
 xtb: 6.7.1 (edcfbbe)
C           -2.08412198646013       -2.83872352458222        1.55032980570993
C           -2.51549044984829       -2.18561834725152        0.41948600399851
C           -3.70646155223774       -2.52230454291169       -0.20021320107959
C           -4.46212815768002       -3.55720903772885        0.36769407164834
C           -4.05047020227185       -4.22939773997813        1.50443336829980
C           -2.82189730213625       -3.90605563468379        2.17119071021967
O           -2.42619404675665       -4.49710031861478        3.19893310578529
H           -1.14761494915908       -2.55390486558140        2.01398591382772
H           -1.91177449138393       -1.38740134994187       -0.00024355606122
H           -4.05710134749885       -2.01907494546194       -1.08667602832586
N           -5.68295466832210       -3.91681298134217       -0.25044593686283
H           -4.66489072588427       -5.02104241258339        1.90745075635111
O           -6.03625100664557       -3.31717906343127       -1.26388898158390
O           -6.36233837098062       -4.81500246720256        0.23395202128659

          :  Hamiltonian                  GFN2-xTB          :
         :: gradient norm              0.000200957896 Eh/a0 ::
         :: HOMO-LUMO gap              0.695637255170 eV    ::
         :: SCC energy               -30.471591985908 Eh    ::
         :: -> dispersion             -0.012876463783 Eh    ::
         :: repulsion energy           0.331328463150 Eh    ::

    * Orbital Energies and Occupations

         #    Occupation            Energy/Eh            Energy/eV
      -------------------------------------------------------------
         1        2.0000           -0.6182117             -16.8224
       ...           ...                  ...                  ...
        14        2.0000           -0.3570226              -9.7151
        15        2.0000           -0.3500362              -9.5250
        16        2.0000           -0.3415376              -9.2937
        17        2.0000           -0.3269564              -8.8969
        18        2.0000           -0.3228882              -8.7862
        19        2.0000           -0.3022946              -8.2259
        20        2.0000           -0.3006847              -8.1820
        21        2.0000           -0.2987816              -8.1303
        22        2.0000           -0.2902788              -7.8989
        23        2.0000           -0.2877272              -7.8295
        24        2.0000           -0.2688163              -7.3149
        25        2.0000           -0.1982912              -5.3958
        26        2.0000           -0.1952260              -5.3124 (HOMO)
        27        0.0000           -0.1696619              -4.6167 (LUMO)
        28                         -0.0682215              -1.8564
        29                         -0.0425730              -1.1585
        30                          0.0655345               1.7833
        31                          0.1594690               4.3394
        32                          0.2640341               7.1847
        33                          0.2758107               7.5052
        34                          0.3188082               8.6752
        35                          0.3336601               9.0794
        36                          0.3777649              10.2795
        37                          0.3902519              10.6193
       ...                                ...                  ...
        44                          0.8361303              22.7523
      -------------------------------------------------------------
                  HL-Gap            0.0255642 Eh            0.6956 eV

     #   Z          covCN         q      C6AA      α(0)
     1   6 C        2.916    -0.083    30.079     8.993
     2   6 C        2.913    -0.041    29.027     8.835
     3   6 C        2.916    -0.073    29.818     8.954
     4   6 C        2.907    -0.013    28.334     8.728
     5   6 C        2.916    -0.086    30.166     9.007
     6   6 C        2.827     0.192    23.896     8.010
     7   8 O        0.858    -0.569    25.378     6.754
     8   1 H        0.925     0.005     2.968     2.694
     9   1 H        0.925    -0.008     3.208     2.801
    10   1 H        0.926     0.019     2.744     2.591
    11   7 N        2.764     0.514    13.874     5.532
    12   1 H        0.926     0.036     2.500     2.472
    13   8 O        0.929    -0.452    22.715     6.392
    14   8 O        0.929    -0.440    22.468     6.357

Wiberg/Mayer (AO) data.
largest (>0.10) Wiberg bond orders for each atom

     #   Z sym  total        # sym  WBO       # sym  WBO       # sym  WBO
 ---------------------------------------------------------------------------
     1   6 C    3.985 --     2 C    1.491     6 C    1.181     8 H    0.973
                             7 O    0.108
     2   6 C    3.991 --     1 C    1.491     3 C    1.419     9 H    0.970
     3   6 C    3.981 --     2 C    1.419     4 C    1.292    10 H    0.969
     4   6 C    3.943 --     5 C    1.402     3 C    1.292    11 N    1.022
     5   6 C    3.982 --     4 C    1.402     6 C    1.195    12 H    0.967
                             7 O    0.108
     6   6 C    3.972 --     7 O    1.510     5 C    1.195     1 C    1.181
     7   8 O    1.840 --     6 C    1.510     1 C    0.108     5 C    0.108
     8   1 H    1.000 --     1 C    0.973
     9   1 H    0.999 --     2 C    0.970
    10   1 H    1.000 --     3 C    0.969
    11   7 N    3.896 --    14 O    1.409    13 O    1.396     4 C    1.022
    12   1 H    0.999 --     5 C    0.967
    13   8 O    1.862 --    11 N    1.396    14 O    0.310
    14   8 O    1.876 --    11 N    1.409    13 O    0.310
 ---------------------------------------------------------------------------

molecular dipole:
                 x           y           z       tot (Debye)
 q only:        7.876       7.778      -2.403
   full:        7.846       7.953      -2.633      29.173

 projected vibrational frequencies (cm⁻¹)
eigval :       -0.00    -0.00    -0.00    -0.00     0.00     0.00
eigval :       36.07   147.08   179.49   212.16   380.19   382.97
eigval :      430.12   488.08   497.03   557.64   624.41   659.60
eigval :      729.33   762.80   790.57   791.47   853.76   909.61
eigval :      945.38   974.55  1110.65  1118.96  1175.94  1226.51
eigval :     1278.32  1337.51  1375.77  1450.03  1502.14  1548.80
eigval :     1578.74  1625.43  3004.82  3047.30  3089.93  3102.64

   temp. (K)  partition function   enthalpy   heat capacity  entropy
                                   cal/mol     cal/K/mol   cal/K/mol   J/K/mol
 298.15  VIB   91.0                 3259.271     23.150     18.637
         ROT  0.593E+06              888.752      2.981     29.399
         INT  0.540E+08             4148.024     26.131     48.036
         TR   0.157E+28             1481.254      4.968     40.662
         TOT                        5629.2776    31.0987    88.6975   371.1104

       T/K    H(0)-H(T)+PV         H(T)/Eh          T*S/Eh         G(T)/Eh
   ------------------------------------------------------------------------
    298.15    0.897082E-02    0.999285E-01    0.421431E-01    0.577854E-01
   ------------------------------------------------------------------------

         :::::::::::::::::::::::::::::::::::::::::::::::::::::
         ::                  THERMODYNAMIC                  ::
         :::::::::::::::::::::::::::::::::::::::::::::::::::::
         :: total free energy         -30.082478091852 Eh   ::
         ::.................................................::
         :: total energy              -30.140263522760 Eh   ::
         :: zero point energy           0.090957658889 Eh   ::
         :: G(RRHO) w/o ZPVE           -0.033172227981 Eh   ::
         :: G(RRHO) contrib.            0.057785430908 Eh   ::
         :::::::::::::::::::::::::::::::::::::::::::::::::::::

           -------------------------------------------------
          | TOTAL ENERGY              -30.140263522760 Eh   |
          | TOTAL ENTHALPY            -30.040335039066 Eh   |
          | TOTAL FREE ENERGY         -30.082478091852 Eh   |
          | GRADIENT NORM               0.000201283210 Eh/α |
          | HOMO-LUMO GAP               0.695636183452 eV   |
           -------------------------------------------------

 * finished run on 2025/10/18 at 04:48:23.724
normal termination of xtb
