   * xtb version 6.7.1 (edcfbbe) compiled by 'albert@albert-system' on 2024-07-22

   ID    Z sym.   atoms
    1    6 C      1-6
    2    8 O      7, 13-15
    3    1 H      8-10, 12, 16, 17
    4    7 N      11

          program call               : xtb tb_lite_results_shiftn0p15_gp393_b0_rot180_complex.xyz --ohess --chrg -1 --alpb water
      * Solvation model:               ALPB
        Solvent                        water
        Solvent mass                       1.8000E+01 g/mol
          :  Hamiltonian                  GFN2-xTB          :
 * total energy  :   -35.3098618 Eh     change       -0.6850343E-10 Eh
 * total energy  :   -35.3143653 Eh     change       -0.4503481E-02 Eh
 * total energy  :   -35.3149983 Eh     change       -0.6329967E-03 Eh
 * total energy  :   -35.3150795 Eh     change       -0.8116030E-04 Eh
 * total energy  :   -35.3151158 Eh     change       -0.3633130E-04 Eh
 * total energy  :   -35.3151235 Eh     change       -0.7667912E-05 Eh
 * total energy  :   -35.3151316 Eh     change       -0.8156048E-05 Eh
 * total energy  :   -35.3151424 Eh     change       -0.1080591E-04 Eh
 * total energy  :   -35.3151493 Eh     change       -0.6897143E-05 Eh
 * total energy  :   -35.3151541 Eh     change       -0.4770781E-05 Eh
   *** GEOMETRY OPTIMIZATION CONVERGED AFTER 10 ITERATIONS ***

 final structure:
================
17
 xtb: 6.7.1 (edcfbbe)
C           -2.08724713633552       -2.80894981481977        1.52046299367047
C           -2.52307975302008       -2.17337428272105        0.37683401837071
C           -3.71485719311347       -2.52540774653258       -0.22795103475971
C           -4.46495500815564       -3.55178146359429        0.35743148037029
C           -4.04593972233456       -4.20593509078008        1.50687800420635
C           -2.82867079817949       -3.85520126172067        2.14301386400707
O           -2.42977805728535       -4.44310031909773        3.20589873354421
H           -1.15341402874545       -2.52354384177840        1.98396027498754
H           -1.92162819966679       -1.38609548631102       -0.05202102652734
H           -4.07593361412276       -2.04188390759958       -1.11987394061086
N           -5.68240717359260       -3.92915829479454       -0.23961226692686
H           -4.65064921097494       -4.99384478598356        1.93052526975478
O           -6.05847151738648       -3.34774369866562       -1.25627245996346
O           -6.34989650309745       -4.83136266065368        0.26342432998169
O           -0.20930526074852       -3.49565906220116        4.35429448055953
H           -1.00935797006311       -3.87796238005562        3.90892239617702
H           -0.39266720306744       -3.56939622795281        5.29615117813360

          :  Hamiltonian                  GFN2-xTB          :
         :: gradient norm              0.000736293897 Eh/a0 ::
         :: HOMO-LUMO gap              0.898986002256 eV    ::
         :: SCC energy               -35.676128633231 Eh    ::
         :: -> dispersion             -0.014330496441 Eh    ::
         :: -> Gsolv                  -0.090688229280 Eh    ::
         :: repulsion energy           0.360974525165 Eh    ::

    * Orbital Energies and Occupations

         #    Occupation            Energy/Eh            Energy/eV
      -------------------------------------------------------------
         1        2.0000           -0.7637405             -20.7824
       ...           ...                  ...                  ...
        18        2.0000           -0.4890202             -13.3069
        19        2.0000           -0.4817851             -13.1100
        20        2.0000           -0.4735261             -12.8853
        21        2.0000           -0.4697733             -12.7832
        22        2.0000           -0.4483955             -12.2015
        23        2.0000           -0.4457693             -12.1300
        24        2.0000           -0.4443131             -12.0904
        25        2.0000           -0.4337512             -11.8030
        26        2.0000           -0.4313503             -11.7376
        27        2.0000           -0.4148961             -11.2899
        28        2.0000           -0.4113280             -11.1928
        29        2.0000           -0.3589850              -9.7685
        30        2.0000           -0.3490181              -9.4973 (HOMO)
        31                         -0.3159810              -8.5983 (LUMO)
        32                         -0.2118422              -5.7645
        33                         -0.1923378              -5.2338
        34                         -0.0802891              -2.1848
        35                          0.0197384               0.5371
        36                          0.1138064               3.0968
        37                          0.1405280               3.8240
        38                          0.1546931               4.2094
        39                          0.1890141               5.1433
        40                          0.1943480               5.2885
        41                          0.2211141               6.0168
       ...                                ...                  ...
        50                          0.6752096              18.3734
      -------------------------------------------------------------
                  HL-Gap            0.0330371 Eh            0.8990 eV

     #   Z          covCN         q      C6AA      α(0)
     1   6 C        2.917    -0.071    29.782     8.949
     2   6 C        2.915    -0.037    28.918     8.818
     3   6 C        2.917    -0.055    29.365     8.886
     4   6 C        2.910    -0.002    28.075     8.688
     5   6 C        2.918    -0.080    29.993     8.981
     6   6 C        2.832     0.183    24.081     8.041
     7   8 O        0.857    -0.663    27.728     7.060
     8   1 H        0.926     0.045     2.387     2.416
     9   1 H        0.926     0.053     2.280     2.361
    10   1 H        0.926     0.060     2.195     2.317
    11   7 N        2.765     0.533    13.666     5.491
    12   1 H        0.926     0.035     2.513     2.479
    13   8 O        0.929    -0.467    23.034     6.436
    14   8 O        0.929    -0.474    23.181     6.457
    15   8 O        1.606    -0.709    27.943     7.134
    16   1 H        0.801     0.307     0.700     1.315
    17   1 H        0.805     0.342     0.607     1.224

Wiberg/Mayer (AO) data.
largest (>0.10) Wiberg bond orders for each atom

     #   Z sym  total        # sym  WBO       # sym  WBO       # sym  WBO
 ---------------------------------------------------------------------------
     1   6 C    3.989 --     2 C    1.470     6 C    1.229     8 H    0.968
     2   6 C    3.990 --     1 C    1.470     3 C    1.437     9 H    0.967
     3   6 C    3.984 --     2 C    1.437     4 C    1.301    10 H    0.965
     4   6 C    3.942 --     5 C    1.373     3 C    1.301    11 N    1.036
     5   6 C    3.985 --     4 C    1.373     6 C    1.262    12 H    0.967
                             7 O    0.103
     6   6 C    3.967 --     7 O    1.376     5 C    1.262     1 C    1.229
     7   8 O    1.776 --     6 C    1.376     5 C    0.103
     8   1 H    0.998 --     1 C    0.968
     9   1 H    0.997 --     2 C    0.967
    10   1 H    0.996 --     3 C    0.965
    11   7 N    3.897 --    14 O    1.393    13 O    1.391     4 C    1.036
    12   1 H    0.999 --     5 C    0.967
    13   8 O    1.850 --    11 N    1.391    14 O    0.296
    14   8 O    1.853 --    11 N    1.393    13 O    0.296
    15   8 O    1.749 --    17 H    0.882    16 H    0.826
    16   1 H    0.906 --    15 O    0.826
    17   1 H    0.883 --    15 O    0.882
 ---------------------------------------------------------------------------

molecular dipole:
                 x           y           z       tot (Debye)
 q only:        7.231       8.211      -3.058
   full:        6.979       8.145      -3.076      28.362

 projected vibrational frequencies (cm⁻¹)
eigval :       -0.00    -0.00     0.00     0.00     0.00     0.00
eigval :       28.92    49.83    60.48   134.48   147.63   165.70
eigval :      192.37   248.79   383.60   385.48   446.79   494.37
eigval :      501.44   511.04   562.81   626.70   659.56   723.23
eigval :      765.01   783.47   787.65   813.05   876.04   915.23
eigval :      963.15   975.51  1113.09  1124.24  1174.40  1240.32
eigval :     1290.38  1304.01  1348.60  1434.94  1495.44  1514.00
eigval :     1517.62  1533.38  1577.66  2948.49  3075.00  3086.74
eigval :     3093.78  3119.46  3613.36

   temp. (K)  partition function   enthalpy   heat capacity  entropy
                                   cal/mol     cal/K/mol   cal/K/mol   J/K/mol
 298.15  VIB  0.749E+04             5227.272     31.729     32.629
         ROT  0.106E+07              888.752      2.981     30.553
         INT  0.794E+10             6116.024     34.710     63.182
         TR   0.189E+28             1481.254      4.968     41.027
         TOT                        7597.2782    39.6779   104.2089   436.0101

       T/K    H(0)-H(T)+PV         H(T)/Eh          T*S/Eh         G(T)/Eh
   ------------------------------------------------------------------------
    298.15    0.121070E-01    0.125576E+00    0.495130E-01    0.760632E-01
   ------------------------------------------------------------------------

         :::::::::::::::::::::::::::::::::::::::::::::::::::::
         ::                  THERMODYNAMIC                  ::
         :::::::::::::::::::::::::::::::::::::::::::::::::::::
         :: total free energy         -35.239090868212 Eh   ::
         ::.................................................::
         :: total energy              -35.315154107289 Eh   ::
         :: zero point energy           0.113469219367 Eh   ::
         :: G(RRHO) w/o ZPVE           -0.037405980291 Eh   ::
         :: G(RRHO) contrib.            0.076063239077 Eh   ::
         :::::::::::::::::::::::::::::::::::::::::::::::::::::

           -------------------------------------------------
          | TOTAL ENERGY              -35.315154107289 Eh   |
          | TOTAL ENTHALPY            -35.189577854522 Eh   |
          | TOTAL FREE ENERGY         -35.239090868212 Eh   |
          | GRADIENT NORM               0.000737060231 Eh/α |
          | HOMO-LUMO GAP               0.898986488576 eV   |
           -------------------------------------------------

 * finished run on 2025/10/18 at 04:48:18.831
normal termination of xtb
