                         Program Version 5.0.4 -  RELEASE  -
|  1> !OPT PBE def2-TZVP CPCM(water)
|  2>
|  3> *xyz -1 1
|  4> C     -5.299237   -3.617381    0.491761
|  5> C     -6.457965   -4.171219    1.267062
|  6> O     -8.391744   -5.609645    1.209250
|  7> O     -6.661619   -3.899353    2.451791
|  8> O     -7.180117   -5.297882   -0.689678
|  9> C     -7.433284   -5.106343    0.544108
| 10> H     -4.668415   -3.019565    1.155661
| 11> H     -4.698458   -4.434953    0.085562
| 12> H     -5.665762   -2.978303   -0.315279
| 13> *
| 14>
| 15>                          ****END OF INPUT****
 Total Charge           Charge          ....   -1
 Multiplicity           Mult            ....    1
 Number of Electrons    NEL             ....   46
 Basis Dimension        Dim             ....  204

ORBITAL ENERGIES
----------------

  NO   OCC          E(Eh)            E(eV)
   0   2.0000     -18.739355      -509.9238
   1   2.0000     -18.687834      -508.5218
   2   2.0000     -18.686785      -508.4933
   3   2.0000      -9.959261      -271.0053
   4   2.0000      -9.950693      -270.7721
   5   2.0000      -9.872092      -268.6333
   6   2.0000      -0.950370       -25.8609
   7   2.0000      -0.916007       -24.9258
   8   2.0000      -0.839944       -22.8561
   9   2.0000      -0.668174       -18.1819
  10   2.0000      -0.546340       -14.8667
  11   2.0000      -0.428458       -11.6589
  12   2.0000      -0.398151       -10.8343
  13   2.0000      -0.390757       -10.6330
  14   2.0000      -0.384427       -10.4608
  15   2.0000      -0.339400        -9.2355
  16   2.0000      -0.338242        -9.2040
  17   2.0000      -0.336047        -9.1443
  18   2.0000      -0.308664        -8.3992
  19   2.0000      -0.237598        -6.4654
  20   2.0000      -0.211869        -5.7653
  21   2.0000      -0.187387        -5.0991
  22   2.0000      -0.176528        -4.8036
  23   0.0000      -0.083763        -2.2793
  24   0.0000       0.040231         1.0948
  25   0.0000       0.057648         1.5687
  26   0.0000       0.088403         2.4056
  27   0.0000       0.111315         3.0290

MULLIKEN ATOMIC CHARGES
-----------------------
   0 C :   -0.331633
   1 C :    0.133684
   2 O :   -0.513364
   3 O :   -0.342793
   4 O :   -0.501653
   5 C :    0.152600
   6 H :    0.118680
   7 H :    0.141271
   8 H :    0.143208
Sum of atomic charges:   -1.0000000

LOEWDIN ATOMIC CHARGES
----------------------
   0 C :   -0.282290
   1 C :   -0.337419
   2 O :   -0.106896
   3 O :    0.076532
   4 O :   -0.100409
   5 C :   -0.667600
   6 H :    0.127850
   7 H :    0.144327
   8 H :    0.145906

  Mayer bond orders larger than 0.100000
B(  0-C ,  1-C ) :   0.9837 B(  0-C ,  6-H ) :   0.9540 B(  0-C ,  7-H ) :   0.9303
B(  0-C ,  8-H ) :   0.9269 B(  1-C ,  3-O ) :   2.0431 B(  1-C ,  5-C ) :   0.8902
B(  2-O ,  5-C ) :   1.8717 B(  4-O ,  5-C ) :   1.8180

FINAL SINGLE POINT ENERGY      -341.727217285402
FINAL SINGLE POINT ENERGY      -341.728338604757
FINAL SINGLE POINT ENERGY      -341.726553268259
FINAL SINGLE POINT ENERGY      -341.729033605066
FINAL SINGLE POINT ENERGY      -341.729058505390
FINAL SINGLE POINT ENERGY      -341.729065697727
FINAL SINGLE POINT ENERGY      -341.729068627818
FINAL SINGLE POINT ENERGY      -341.729072165284
FINAL SINGLE POINT ENERGY      -341.729086969105
FINAL SINGLE POINT ENERGY      -341.729130820541
FINAL SINGLE POINT ENERGY      -341.729399978732
FINAL SINGLE POINT ENERGY      -341.729399994351
FINAL SINGLE POINT ENERGY      -341.729400016106
FINAL SINGLE POINT ENERGY      -341.729400029138
FINAL SINGLE POINT ENERGY      -341.729400049264
FINAL SINGLE POINT ENERGY      -341.729400062967
FINAL SINGLE POINT ENERGY      -341.729400081725
FINAL SINGLE POINT ENERGY      -341.729400096783
FINAL SINGLE POINT ENERGY      -341.729400114880

CARTESIAN COORDINATES (ANGSTROEM)
---------------------------------
  C     -5.267392   -3.658147    0.543897
  C     -6.532156   -4.056759    1.249702
  O     -7.979711   -5.999443    1.234597
  O     -6.819656   -3.604019    2.355338
  O     -7.548414   -4.988656   -0.733482
  C     -7.444186   -5.114165    0.525971
  H     -4.585660   -3.108220    1.208321
  H     -4.754648   -4.558630    0.153448
  H     -5.524778   -3.046605   -0.337555

FINAL SINGLE POINT ENERGY      -341.729400131330

DIPOLE MOMENT
-------------
                                X             Y             Z
Electronic contribution:     -4.09399      -1.10729       1.43320
Nuclear contribution   :      5.59047       2.81024      -1.44791
                        -----------------------------------------
Total Dipole Moment    :      1.49648       1.70296      -0.01471
                        -----------------------------------------
Magnitude (a.u.)       :      2.26710
Magnitude (Debye)      :      5.76251

Rotational constants in cm-1:     0.188402     0.110566     0.077909
Rotational constants in MHz :  5648.163036  3314.678311  2335.648630

                             ****ORCA TERMINATED NORMALLY****
TOTAL RUN TIME: 0 days 0 hours 21 minutes 6 seconds 252 msec
