   * xtb version 6.7.1 (edcfbbe) compiled by 'albert@albert-system' on 2024-07-22

   ID    Z sym.   atoms
    1    6 C      1
    2    8 O      2, 3
    3    1 H      4

          program call               : xtb xyz.xyz --charge -1 --ohess
          :  Hamiltonian                  GFN2-xTB          :
 * total energy  :   -10.9960750 Eh     change       -0.5462297E-11 Eh
 * total energy  :   -10.9978881 Eh     change       -0.1813126E-02 Eh
 * total energy  :   -10.9982003 Eh     change       -0.3121847E-03 Eh
 * total energy  :   -10.9982743 Eh     change       -0.7406758E-04 Eh
 * total energy  :   -10.9983017 Eh     change       -0.2737880E-04 Eh
 * total energy  :   -10.9983025 Eh     change       -0.8252140E-06 Eh
   *** GEOMETRY OPTIMIZATION CONVERGED AFTER 6 ITERATIONS ***

 final structure:
================
4
 xtb: 6.7.1 (edcfbbe)
C           -3.13028567678357        2.37939298674252       -0.00000968621139
O           -3.33521143143596        3.59203694243999        0.00000166130902
O           -2.08755379607681        1.72731164264796       -0.00000616731477
H           -4.11959409570366        1.71746242816953       -0.00002680778286

          :  Hamiltonian                  GFN2-xTB          :
         :: gradient norm              0.000228869245 Eh/a0 ::
         :: HOMO-LUMO gap              5.348779821625 eV    ::
         :: SCC energy               -11.068196821505 Eh    ::
         :: -> dispersion             -0.001531287196 Eh    ::
         :: repulsion energy           0.069894281449 Eh    ::

    * Orbital Energies and Occupations

         #    Occupation            Energy/Eh            Energy/eV
      -------------------------------------------------------------
         1        2.0000           -0.4601045             -12.5201
         2        2.0000           -0.4501418             -12.2490
         3        2.0000           -0.3600396              -9.7972
         4        2.0000           -0.3160689              -8.6007
         5        2.0000           -0.3006169              -8.1802
         6        2.0000           -0.2821053              -7.6765
         7        2.0000           -0.1908195              -5.1925
         8        2.0000           -0.1779184              -4.8414
         9        2.0000           -0.1559438              -4.2434 (HOMO)
        10                          0.0406202               1.1053 (LUMO)
        11                          0.3005571               8.1786
        12                          0.6305937              17.1593
        13                          0.9003678              24.5003
      -------------------------------------------------------------
                  HL-Gap            0.1965640 Eh            5.3488 eV

     #   Z          covCN         q      C6AA      α(0)
     1   6 C        2.604     0.388    20.457     7.397
     2   8 O        0.856    -0.595    25.997     6.836
     3   8 O        0.856    -0.595    25.997     6.836
     4   1 H        0.894    -0.198    10.681     5.114

Wiberg/Mayer (AO) data.
largest (>0.10) Wiberg bond orders for each atom

     #   Z sym  total        # sym  WBO       # sym  WBO       # sym  WBO
 ---------------------------------------------------------------------------
     1   6 C    3.944 --     2 O    1.551     3 O    1.551     4 H    0.842
     2   8 O    1.849 --     1 C    1.551     3 O    0.238
     3   8 O    1.849 --     1 C    1.551     2 O    0.238
     4   1 H    0.961 --     1 C    0.842
 ---------------------------------------------------------------------------

molecular dipole:
                 x           y           z       tot (Debye)
 q only:        5.343      -4.879      -0.000
   full:        5.144      -5.012      -0.000      18.256

 projected vibrational frequencies (cm⁻¹)
eigval :       -0.00    -0.00    -0.00    -0.00     0.00     0.00
eigval :      704.32   948.34  1273.76  1465.14  1830.62  1970.44

   temp. (K)  partition function   enthalpy   heat capacity  entropy
                                   cal/mol     cal/K/mol   cal/K/mol   J/K/mol
 298.15  VIB   1.05                  110.367      1.540      0.465
         ROT  0.348E+04              888.752      2.981     19.189
         INT  0.365E+04              999.119      4.521     19.654
         TR   0.292E+27             1481.254      4.968     37.322
         TOT                        2480.3732     9.4893    56.9761   238.3881

       T/K    H(0)-H(T)+PV         H(T)/Eh          T*S/Eh         G(T)/Eh
   ------------------------------------------------------------------------
    298.15    0.395273E-02    0.226169E-01    0.270712E-01   -0.445434E-02
   ------------------------------------------------------------------------

         :::::::::::::::::::::::::::::::::::::::::::::::::::::
         ::                  THERMODYNAMIC                  ::
         :::::::::::::::::::::::::::::::::::::::::::::::::::::
         :: total free energy         -11.002756877873 Eh   ::
         ::.................................................::
         :: total energy              -10.998302540057 Eh   ::
         :: zero point energy           0.018664126627 Eh   ::
         :: G(RRHO) w/o ZPVE           -0.023118464443 Eh   ::
         :: G(RRHO) contrib.           -0.004454337816 Eh   ::
         :::::::::::::::::::::::::::::::::::::::::::::::::::::

           -------------------------------------------------
          | TOTAL ENERGY              -10.998302540057 Eh   |
          | TOTAL ENTHALPY            -10.975685687212 Eh   |
          | TOTAL FREE ENERGY         -11.002756877873 Eh   |
          | GRADIENT NORM               0.000228869357 Eh/α |
          | HOMO-LUMO GAP               5.348779827395 eV   |
           -------------------------------------------------

 * finished run on 2025/10/19 at 03:21:45.119
