   * xtb version 6.7.1 (edcfbbe) compiled by 'albert@albert-system' on 2024-07-22

   ID    Z sym.   atoms
    1    6 C      1, 2, 5, 7, 9, 11
    2    8 O      3, 6
    3    1 H      4, 8, 10, 12, 13

          program call               : xtb xyz.xyz --alpb water --charge -1 --ohess
      * Solvation model:               ALPB
        Solvent                        water
        Solvent mass                       1.8000E+01 g/mol
          :  Hamiltonian                  GFN2-xTB          :
 * total energy  :   -23.8116353 Eh     change       -0.4992451E-09 Eh
 * total energy  :   -23.8136321 Eh     change       -0.1996811E-02 Eh
 * total energy  :   -23.8139161 Eh     change       -0.2839477E-03 Eh
 * total energy  :   -23.8139296 Eh     change       -0.1350384E-04 Eh
 * total energy  :   -23.8139329 Eh     change       -0.3356898E-05 Eh
   *** GEOMETRY OPTIMIZATION CONVERGED AFTER 5 ITERATIONS ***

 final structure:
================
13
 xtb: 6.7.1 (edcfbbe)
C           -6.32268120855120       -3.54051488160232        2.05566042955947
C           -6.00370716514823       -4.02201467404068        0.75792235339173
O           -9.39142618633960       -5.32653210901782        2.93198408513845
H           -7.64560069863501       -3.58937081292721        3.73773766603235
C           -6.90729036373439       -4.98064661367305        0.23084700073080
O           -4.96892506173946       -3.61775292895709        0.10626981521289
C           -8.01343050420133       -5.41144821205448        0.93088875984025
H           -9.88220202439823       -5.97876929725109        2.41238847398977
C           -8.28675935350791       -4.91517238086162        2.19638508611880
H           -8.67430956478359       -6.14609028676911        0.48393305477802
C           -7.42860052243111       -3.97467424539686        2.74997447110697
H           -5.65770125288295       -2.80591317601638        2.49506735719561
H           -6.70094509364697       -5.37409738143229       -0.75791155309512

          :  Hamiltonian                  GFN2-xTB          :
         :: gradient norm              0.000642821458 Eh/a0 ::
         :: HOMO-LUMO gap              3.144228704804 eV    ::
         :: SCC energy               -24.124897061995 Eh    ::
         :: -> dispersion             -0.010684931239 Eh    ::
         :: -> Gsolv                  -0.104976633833 Eh    ::
         :: repulsion energy           0.310964140252 Eh    ::

    * Orbital Energies and Occupations

         #    Occupation            Energy/Eh            Energy/eV
      -------------------------------------------------------------
         1        2.0000           -0.6863369             -18.6762
       ...           ...                  ...                  ...
         9        2.0000           -0.5080507             -13.8248
        10        2.0000           -0.4922257             -13.3941
        11        2.0000           -0.4821994             -13.1213
        12        2.0000           -0.4584769             -12.4758
        13        2.0000           -0.4527958             -12.3212
        14        2.0000           -0.4524848             -12.3127
        15        2.0000           -0.4449590             -12.1080
        16        2.0000           -0.4129218             -11.2362
        17        2.0000           -0.4045355             -11.0080
        18        2.0000           -0.3937444             -10.7143
        19        2.0000           -0.3735764             -10.1655
        20        2.0000           -0.3230968              -8.7919
        21        2.0000           -0.3067926              -8.3483 (HOMO)
        22                         -0.1912441              -5.2040 (LUMO)
        23                         -0.1589400              -4.3250
        24                         -0.0491117              -1.3364
        25                          0.0748813               2.0376
        26                          0.1359022               3.6981
        27                          0.1657407               4.5100
        28                          0.1874284               5.1002
        29                          0.2107732               5.7354
        30                          0.2304577               6.2711
        31                          0.2616635               7.1202
        32                          0.4212440              11.4626
       ...                                ...                  ...
        37                          0.7024096              19.1135
      -------------------------------------------------------------
                  HL-Gap            0.1155484 Eh            3.1442 eV

     #   Z          covCN         q      C6AA      α(0)
     1   6 C        2.920    -0.098    30.464     9.051
     2   6 C        2.831     0.157    24.605     8.128
     3   8 O        1.657    -0.497    22.823     6.449
     4   1 H        0.925     0.012     2.853     2.642
     5   6 C        2.920    -0.099    30.501     9.057
     6   8 O        0.857    -0.741    29.854     7.326
     7   6 C        2.913    -0.085    30.125     9.000
     8   1 H        0.805     0.353     0.580     1.196
     9   6 C        2.845     0.093    25.930     8.345
    10   1 H        0.925     0.010     2.895     2.661
    11   6 C        2.914    -0.072    29.794     8.951
    12   1 H        0.925    -0.017     3.361     2.867
    13   1 H        0.925    -0.016     3.359     2.866

Wiberg/Mayer (AO) data.
largest (>0.10) Wiberg bond orders for each atom

     #   Z sym  total        # sym  WBO       # sym  WBO       # sym  WBO
 ---------------------------------------------------------------------------
     1   6 C    3.979 --    11 C    1.487     2 C    1.252    12 H    0.972
                             6 O    0.101
     2   6 C    3.967 --     6 O    1.352     5 C    1.258     1 C    1.252
     3   8 O    1.996 --     9 C    1.012     8 H    0.857
     4   1 H    1.000 --    11 C    0.969
     5   6 C    3.979 --     7 C    1.474     2 C    1.258    13 H    0.972
                             6 O    0.103
     6   8 O    1.639 --     2 C    1.352     5 C    0.103     1 C    0.101
     7   6 C    3.983 --     5 C    1.474     9 C    1.370    10 H    0.966
     8   1 H    0.875 --     3 O    0.857
     9   6 C    3.925 --     7 C    1.370    11 C    1.361     3 O    1.012
    10   1 H    1.000 --     7 C    0.966
    11   6 C    3.986 --     1 C    1.487     9 C    1.361     4 H    0.969
    12   1 H    1.000 --     1 C    0.972
    13   1 H    1.000 --     5 C    0.972
 ---------------------------------------------------------------------------

molecular dipole:
                 x           y           z       tot (Debye)
 q only:       10.754       7.077      -1.586
   full:       10.646       6.960      -1.655      32.602

 projected vibrational frequencies (cm⁻¹)
eigval :       -0.00    -0.00    -0.00     0.00     0.00     0.00
eigval :      139.64   313.01   340.89   348.79   375.04   437.25
eigval :      441.88   482.61   621.20   651.03   756.37   776.10
eigval :      836.16   869.70   872.37   892.76   992.64  1096.86
eigval :     1127.65  1178.30  1206.70  1250.41  1315.34  1371.19
eigval :     1430.76  1502.24  1546.02  1627.96  3001.58  3013.77
eigval :     3024.17  3046.83  3485.04

   temp. (K)  partition function   enthalpy   heat capacity  entropy
                                   cal/mol     cal/K/mol   cal/K/mol   J/K/mol
 298.15  VIB   8.66                 2380.137     19.870     12.269
         ROT  0.267E+06              888.752      2.981     27.810
         INT  0.231E+07             3268.889     22.851     40.078
         TR   0.110E+28             1481.254      4.968     39.960
         TOT                        4750.1429    27.8194    80.0379   334.8784

       T/K    H(0)-H(T)+PV         H(T)/Eh          T*S/Eh         G(T)/Eh
   ------------------------------------------------------------------------
    298.15    0.756983E-02    0.995446E-01    0.380286E-01    0.615160E-01
   ------------------------------------------------------------------------

         :::::::::::::::::::::::::::::::::::::::::::::::::::::
         ::                  THERMODYNAMIC                  ::
         :::::::::::::::::::::::::::::::::::::::::::::::::::::
         :: total free energy         -23.752416887056 Eh   ::
         ::.................................................::
         :: total energy              -23.813932922285 Eh   ::
         :: zero point energy           0.091974767652 Eh   ::
         :: G(RRHO) w/o ZPVE           -0.030458732423 Eh   ::
         :: G(RRHO) contrib.            0.061516035230 Eh   ::
         :::::::::::::::::::::::::::::::::::::::::::::::::::::

           -------------------------------------------------
          | TOTAL ENERGY              -23.813932922285 Eh   |
          | TOTAL ENTHALPY            -23.714388320051 Eh   |
          | TOTAL FREE ENERGY         -23.752416887056 Eh   |
          | GRADIENT NORM               0.000642356009 Eh/α |
          | HOMO-LUMO GAP               3.144233074433 eV   |
           -------------------------------------------------

 * finished run on 2025/10/18 at 03:01:38.264
