   * xtb version 6.7.1 (edcfbbe) compiled by 'albert@albert-system' on 2024-07-22

   ID    Z sym.   atoms
    1    6 C      1, 2
    2    1 H      3, 4, 6, 8, 9
    3    8 O      5, 7

          program call               : xtb tb_lite_results_shiftn0p1_gp280_b0_rot0_complex.xyz --ohess --chrg -1 --alpb water
      * Solvation model:               ALPB
        Solvent                        water
        Solvent mass                       1.8000E+01 g/mol
          :  Hamiltonian                  GFN2-xTB          :
 * total energy  :   -15.2197615 Eh     change       -0.3815259E-10 Eh
 * total energy  :   -15.2223840 Eh     change       -0.2622506E-02 Eh
 * total energy  :   -15.2226202 Eh     change       -0.2362395E-03 Eh
 * total energy  :   -15.2226862 Eh     change       -0.6600219E-04 Eh
 * total energy  :   -15.2227060 Eh     change       -0.1973121E-04 Eh
 * total energy  :   -15.2227276 Eh     change       -0.2162575E-04 Eh
 * total energy  :   -15.2227338 Eh     change       -0.6228194E-05 Eh
 * total energy  :   -15.2227398 Eh     change       -0.6040069E-05 Eh
 * total energy  :   -15.2227494 Eh     change       -0.9580104E-05 Eh
 * total energy  :   -15.2227574 Eh     change       -0.7965153E-05 Eh
 * total energy  :   -15.2244195 Eh     change       -0.2755452E-05 Eh
 * total energy  :   -15.2244243 Eh     change       -0.4817771E-05 Eh
 * total energy  :   -15.2244288 Eh     change       -0.4535701E-05 Eh
 * total energy  :   -15.2244366 Eh     change       -0.7817075E-05 Eh
 * total energy  :   -15.2244416 Eh     change       -0.4999470E-05 Eh
 * total energy  :   -15.2244470 Eh     change       -0.5318642E-05 Eh
 * total energy  :   -15.2244470 Eh     change       -0.1612112E-07 Eh
 * total energy  :   -15.2244525 Eh     change       -0.5554487E-05 Eh
 * total energy  :   -15.2244567 Eh     change       -0.4210276E-05 Eh
   *** GEOMETRY OPTIMIZATION CONVERGED AFTER 66 ITERATIONS ***

 final structure:
================
9
 xtb: 6.7.1 (edcfbbe)
C           -6.24884104792751       -4.28369724414214        0.77971936885000
C           -7.34486882890003       -4.53846901104169        1.50762875128814
H           -6.16742451756309       -4.62605073323986       -0.23716496461913
H           -5.42026703699808       -3.73624478284186        1.19657729964976
O           -7.59888392928594       -4.20361397263014        2.72723406520805
H           -8.15854630716382       -5.11482503556149        1.00170726131024
O           -5.70525354507703       -2.86961298848574        3.98597805108263
H           -6.38632726152410       -3.40723836828728        3.48801973423378
H           -6.22229793295830       -2.27148291310820        4.53526748490248

          :  Hamiltonian                  GFN2-xTB          :
         :: gradient norm              0.000709442249 Eh/a0 ::
         :: HOMO-LUMO gap              4.894124980885 eV    ::
         :: SCC energy               -15.368995557820 Eh    ::
         :: -> dispersion             -0.003940381605 Eh    ::
         :: -> Gsolv                  -0.111072316400 Eh    ::
         :: repulsion energy           0.144538818333 Eh    ::

    * Orbital Energies and Occupations

         #    Occupation            Energy/Eh            Energy/eV
      -------------------------------------------------------------
         1        2.0000           -0.6459942             -17.5784
         2        2.0000           -0.6277050             -17.0807
         3        2.0000           -0.5687837             -15.4774
         4        2.0000           -0.5329905             -14.5034
         5        2.0000           -0.5136453             -13.9770
         6        2.0000           -0.4844097             -13.1815
         7        2.0000           -0.4800322             -13.0623
         8        2.0000           -0.4458566             -12.1324
         9        2.0000           -0.4387194             -11.9382
        10        2.0000           -0.4201649             -11.4333
        11        2.0000           -0.4102265             -11.1628
        12        2.0000           -0.3429051              -9.3309
        13        2.0000           -0.3159569              -8.5976 (HOMO)
        14                         -0.1361011              -3.7035 (LUMO)
        15                          0.1215393               3.3073
        16                          0.1510554               4.1104
        17                          0.1837633               5.0005
        18                          0.2741718               7.4606
        19                          0.3043796               8.2826
        20                          0.4833304              13.1521
        21                          0.6424353              17.4816
      -------------------------------------------------------------
                  HL-Gap            0.1798558 Eh            4.8941 eV

     #   Z          covCN         q      C6AA      α(0)
     1   6 C        2.833    -0.196    33.156     9.436
     2   6 C        2.756     0.152    24.686     8.136
     3   1 H        0.926    -0.032     3.678     2.999
     4   1 H        0.926    -0.018     3.388     2.878
     5   8 O        0.857    -0.720    29.251     7.251
     6   1 H        0.920    -0.112     6.018     3.837
     7   8 O        1.604    -0.713    28.071     7.151
     8   1 H        0.800     0.300     0.723     1.336
     9   1 H        0.805     0.340     0.613     1.230

Wiberg/Mayer (AO) data.
largest (>0.10) Wiberg bond orders for each atom

     #   Z sym  total        # sym  WBO       # sym  WBO       # sym  WBO
 ---------------------------------------------------------------------------
     1   6 C    3.911 --     2 C    1.723     3 H    0.982     4 H    0.979
                             5 O    0.222
     2   6 C    3.963 --     1 C    1.723     5 O    1.306     6 H    0.930
     3   1 H    0.999 --     1 C    0.982
     4   1 H    1.000 --     1 C    0.979
     5   8 O    1.711 --     2 C    1.306     1 C    0.222
     6   1 H    0.987 --     2 C    0.930
     7   8 O    1.745 --     9 H    0.884     8 H    0.813
     8   1 H    0.910 --     7 O    0.813
     9   1 H    0.885 --     7 O    0.884
 ---------------------------------------------------------------------------

molecular dipole:
                 x           y           z       tot (Debye)
 q only:       12.909       7.973      -4.291
   full:       12.691       7.886      -4.497      39.662

 projected vibrational frequencies (cm⁻¹)
eigval :       -0.00    -0.00    -0.00    -0.00     0.00     0.00
eigval :      -72.03    82.81   103.52   271.99   508.12   555.96
eigval :      657.13   675.70   838.14   984.79  1004.80  1223.00
eigval :     1372.87  1408.22  1537.80  1682.02  2539.84  2775.91
eigval :     3078.38  3096.79  3609.89

   temp. (K)  partition function   enthalpy   heat capacity  entropy
                                   cal/mol     cal/K/mol   cal/K/mol   J/K/mol
 298.15  VIB   14.0                 1751.412     11.490     11.001
         ROT  0.706E+05              888.752      2.981     25.169
         INT  0.990E+06             2640.164     14.471     36.170
         TR   0.462E+27             1481.254      4.968     38.230
         TOT                        4121.4180    19.4390    74.4001   311.2898

       T/K    H(0)-H(T)+PV         H(T)/Eh          T*S/Eh         G(T)/Eh
   ------------------------------------------------------------------------
    298.15    0.656790E-02    0.703741E-01    0.353499E-01    0.350242E-01
   ------------------------------------------------------------------------

         :::::::::::::::::::::::::::::::::::::::::::::::::::::
         ::                  THERMODYNAMIC                  ::
         :::::::::::::::::::::::::::::::::::::::::::::::::::::
         :: total free energy         -15.189432512379 Eh   ::
         ::.................................................::
         :: total energy              -15.224456739999 Eh   ::
         :: zero point energy           0.063806196873 Eh   ::
         :: G(RRHO) w/o ZPVE           -0.028781969253 Eh   ::
         :: G(RRHO) contrib.            0.035024227620 Eh   ::
         :::::::::::::::::::::::::::::::::::::::::::::::::::::

           -------------------------------------------------
          | TOTAL ENERGY              -15.224456739999 Eh   |
          | TOTAL ENTHALPY            -15.154082645529 Eh   |
          | TOTAL FREE ENERGY         -15.189432512379 Eh   |
          | GRADIENT NORM               0.000709388952 Eh/α |
          | HOMO-LUMO GAP               4.894125338141 eV   |
           -------------------------------------------------

 * finished run on 2025/10/18 at 02:34:00.166
normal termination of xtb
