   * xtb version 6.7.1 (edcfbbe) compiled by 'albert@albert-system' on 2024-07-22

   ID    Z sym.   atoms
    1    6 C      1, 2
    2    1 H      3, 4, 6, 8, 9
    3    8 O      5, 7

          program call               : xtb tb_lite_results_shiftn0p15_gp280_b0_rot0_complex.xyz --ohess --chrg -1 --alpb water
      * Solvation model:               ALPB
        Solvent                        water
        Solvent mass                       1.8000E+01 g/mol
          :  Hamiltonian                  GFN2-xTB          :
 * total energy  :   -15.2196497 Eh     change       -0.2877698E-10 Eh
 * total energy  :   -15.2224768 Eh     change       -0.2827047E-02 Eh
 * total energy  :   -15.2226738 Eh     change       -0.1969875E-03 Eh
 * total energy  :   -15.2227059 Eh     change       -0.3213790E-04 Eh
 * total energy  :   -15.2227200 Eh     change       -0.1404826E-04 Eh
 * total energy  :   -15.2227335 Eh     change       -0.1351426E-04 Eh
 * total energy  :   -15.2227378 Eh     change       -0.4295680E-05 Eh
   *** GEOMETRY OPTIMIZATION CONVERGED AFTER 7 ITERATIONS ***

 final structure:
================
9
 xtb: 6.7.1 (edcfbbe)
C           -6.28059204231003       -4.17440816815928        0.83008051501205
C           -7.34418913154442       -4.59473157933882        1.53125368304307
H           -6.15603851881165       -4.45254572928614       -0.20160352467596
H           -5.52021237470679       -3.55479293266748        1.27393980983249
O           -7.65421804496004       -4.36491934390542        2.76017181914648
H           -8.07310953714804       -5.23764521675871        0.97770477573132
O           -6.12344330809550       -2.84512828212961        4.29911258167663
H           -6.71406586235373       -3.42567879283015        3.74175058160055
H           -5.47344412784558       -2.48798754464154        3.68595427016109

          :  Hamiltonian                  GFN2-xTB          :
         :: gradient norm              0.000471756001 Eh/a0 ::
         :: HOMO-LUMO gap              4.892002220690 eV    ::
         :: SCC energy               -15.367546435851 Eh    ::
         :: -> dispersion             -0.003927782923 Eh    ::
         :: -> Gsolv                  -0.107006739465 Eh    ::
         :: repulsion energy           0.144808660375 Eh    ::

    * Orbital Energies and Occupations

         #    Occupation            Energy/Eh            Energy/eV
      -------------------------------------------------------------
         1        2.0000           -0.6489663             -17.6593
         2        2.0000           -0.6291380             -17.1197
         3        2.0000           -0.5705354             -15.5251
         4        2.0000           -0.5345277             -14.5452
         5        2.0000           -0.5186218             -14.1124
         6        2.0000           -0.4857459             -13.2178
         7        2.0000           -0.4816643             -13.1068
         8        2.0000           -0.4488423             -12.2136
         9        2.0000           -0.4400881             -11.9754
        10        2.0000           -0.4225591             -11.4984
        11        2.0000           -0.4138635             -11.2618
        12        2.0000           -0.3436142              -9.3502
        13        2.0000           -0.3172705              -8.6334 (HOMO)
        14                         -0.1374927              -3.7414 (LUMO)
        15                          0.1105624               3.0086
        16                          0.1516887               4.1277
        17                          0.1870188               5.0890
        18                          0.2500473               6.8041
        19                          0.3235188               8.8034
        20                          0.4770176              12.9803
        21                          0.6451099              17.5543
      -------------------------------------------------------------
                  HL-Gap            0.1797778 Eh            4.8920 eV

     #   Z          covCN         q      C6AA      α(0)
     1   6 C        2.833    -0.199    33.246     9.449
     2   6 C        2.756     0.155    24.626     8.126
     3   1 H        0.926    -0.033     3.694     3.006
     4   1 H        0.926    -0.022     3.474     2.915
     5   8 O        0.856    -0.720    29.251     7.251
     6   1 H        0.920    -0.114     6.063     3.851
     7   8 O        1.605    -0.698    27.663     7.098
     8   1 H        0.800     0.310     0.692     1.307
     9   1 H        0.805     0.320     0.663     1.279

Wiberg/Mayer (AO) data.
largest (>0.10) Wiberg bond orders for each atom

     #   Z sym  total        # sym  WBO       # sym  WBO       # sym  WBO
 ---------------------------------------------------------------------------
     1   6 C    3.904 --     2 C    1.712     3 H    0.982     4 H    0.979
                             5 O    0.226
     2   6 C    3.962 --     1 C    1.712     5 O    1.315     6 H    0.929
     3   1 H    0.999 --     1 C    0.982
     4   1 H    1.000 --     1 C    0.979
     5   8 O    1.711 --     2 C    1.315     1 C    0.226
     6   1 H    0.987 --     2 C    0.929
     7   8 O    1.755 --     9 H    0.896     8 H    0.814
     8   1 H    0.904 --     7 O    0.814
     9   1 H    0.897 --     7 O    0.896
 ---------------------------------------------------------------------------

molecular dipole:
                 x           y           z       tot (Debye)
 q only:       13.797       7.949      -5.117
   full:       13.800       7.831      -5.533      42.712

 projected vibrational frequencies (cm⁻¹)
eigval :       -0.00     0.00     0.00     0.00     0.00     0.00
eigval :     -147.47    56.26    77.09   263.89   484.55   537.88
eigval :      633.41   672.74   820.33   981.71   999.17  1218.73
eigval :     1377.37  1411.16  1527.85  1679.27  2537.81  2827.41
eigval :     3082.65  3093.43  3611.18

   temp. (K)  partition function   enthalpy   heat capacity  entropy
                                   cal/mol     cal/K/mol   cal/K/mol   J/K/mol
 298.15  VIB   25.6                 1854.490     11.362     12.091
         ROT  0.725E+05              888.752      2.981     25.222
         INT  0.186E+07             2743.242     14.343     37.314
         TR   0.462E+27             1481.254      4.968     38.230
         TOT                        4224.4958    19.3109    75.5438   316.0754

       T/K    H(0)-H(T)+PV         H(T)/Eh          T*S/Eh         G(T)/Eh
   ------------------------------------------------------------------------
    298.15    0.673216E-02    0.702791E-01    0.358933E-01    0.343858E-01
   ------------------------------------------------------------------------

         :::::::::::::::::::::::::::::::::::::::::::::::::::::
         ::                  THERMODYNAMIC                  ::
         :::::::::::::::::::::::::::::::::::::::::::::::::::::
         :: total free energy         -15.188351941575 Eh   ::
         ::.................................................::
         :: total energy              -15.222737775520 Eh   ::
         :: zero point energy           0.063546983035 Eh   ::
         :: G(RRHO) w/o ZPVE           -0.029161149090 Eh   ::
         :: G(RRHO) contrib.            0.034385833945 Eh   ::
         :::::::::::::::::::::::::::::::::::::::::::::::::::::

           -------------------------------------------------
          | TOTAL ENERGY              -15.222737775520 Eh   |
          | TOTAL ENTHALPY            -15.152458629870 Eh   |
          | TOTAL FREE ENERGY         -15.188351941575 Eh   |
          | GRADIENT NORM               0.000471574041 Eh/α |
          | HOMO-LUMO GAP               4.892001930623 eV   |
           -------------------------------------------------

 * finished run on 2025/10/18 at 02:33:56.122
normal termination of xtb
