   * xtb version 6.7.1 (edcfbbe) compiled by 'albert@albert-system' on 2024-07-22

   ID    Z sym.   atoms
    1    6 C      1, 2
    2    1 H      3, 4, 6, 8, 9
    3    8 O      5, 7

          program call               : xtb tb_lite_results_shiftn0p15_gp325_b0_rot0_complex.xyz --ohess --chrg -1 --alpb water
      * Solvation model:               ALPB
        Solvent                        water
        Solvent mass                       1.8000E+01 g/mol
          :  Hamiltonian                  GFN2-xTB          :
 * total energy  :   -15.2194245 Eh     change       -0.5888623E-11 Eh
 * total energy  :   -15.2222923 Eh     change       -0.2867843E-02 Eh
 * total energy  :   -15.2225147 Eh     change       -0.2224361E-03 Eh
 * total energy  :   -15.2225471 Eh     change       -0.3235061E-04 Eh
 * total energy  :   -15.2226122 Eh     change       -0.6514584E-04 Eh
 * total energy  :   -15.2226352 Eh     change       -0.2293624E-04 Eh
 * total energy  :   -15.2226494 Eh     change       -0.1421955E-04 Eh
 * total energy  :   -15.2226631 Eh     change       -0.1369907E-04 Eh
 * total energy  :   -15.2226845 Eh     change       -0.2143760E-04 Eh
 * total energy  :   -15.2227049 Eh     change       -0.2032842E-04 Eh
 * total energy  :   -15.2243685 Eh     change       -0.3761398E-04 Eh
 * total energy  :   -15.2243795 Eh     change       -0.1101157E-04 Eh
 * total energy  :   -15.2243561 Eh     change        0.2340026E-04 Eh
 * total energy  :   -15.2244000 Eh     change       -0.4393236E-04 Eh
 * total energy  :   -15.2244068 Eh     change       -0.6741974E-05 Eh
 * total energy  :   -15.2244131 Eh     change       -0.6297097E-05 Eh
 * total energy  :   -15.2244145 Eh     change       -0.1471622E-05 Eh
 * total energy  :   -15.2244214 Eh     change       -0.6818053E-05 Eh
 * total energy  :   -15.2244253 Eh     change       -0.3943089E-05 Eh
   *** GEOMETRY OPTIMIZATION CONVERGED AFTER 63 ITERATIONS ***

 final structure:
================
9
 xtb: 6.7.1 (edcfbbe)
C           -6.29552877041724       -4.19628642526706        0.71418054965110
C           -7.32797703290427       -4.58775417634614        1.47373717940749
H           -6.07423119693567       -4.68890626384194       -0.21663180242530
H           -5.66882913825811       -3.37201343903626        1.01085113371929
O           -7.72631029529154       -4.10848525460849        2.60336483797330
H           -7.93194656126802       -5.44767252429215        1.09136153042714
O           -6.34813264678394       -2.06962519235965        3.55356216622907
H           -6.88113719377558       -2.81109453424910        3.14559442047051
H           -6.15607789044451       -2.37388763797306        4.44647605070516

          :  Hamiltonian                  GFN2-xTB          :
         :: gradient norm              0.000591835196 Eh/a0 ::
         :: HOMO-LUMO gap              4.893478705365 eV    ::
         :: SCC energy               -15.368938918247 Eh    ::
         :: -> dispersion             -0.003945276538 Eh    ::
         :: -> Gsolv                  -0.110893291636 Eh    ::
         :: repulsion energy           0.144513611717 Eh    ::

    * Orbital Energies and Occupations

         #    Occupation            Energy/Eh            Energy/eV
      -------------------------------------------------------------
         1        2.0000           -0.6460899             -17.5810
         2        2.0000           -0.6277385             -17.0816
         3        2.0000           -0.5688379             -15.4789
         4        2.0000           -0.5328285             -14.4990
         5        2.0000           -0.5139031             -13.9840
         6        2.0000           -0.4844604             -13.1828
         7        2.0000           -0.4801716             -13.0661
         8        2.0000           -0.4460439             -12.1375
         9        2.0000           -0.4387233             -11.9383
        10        2.0000           -0.4203080             -11.4372
        11        2.0000           -0.4102176             -11.1626
        12        2.0000           -0.3428872              -9.3304
        13        2.0000           -0.3160375              -8.5998 (HOMO)
        14                         -0.1362055              -3.7063 (LUMO)
        15                          0.1218719               3.3163
        16                          0.1507408               4.1019
        17                          0.1831772               4.9845
        18                          0.2736938               7.4476
        19                          0.3041060               8.2751
        20                          0.4828618              13.1393
        21                          0.6423731              17.4799
      -------------------------------------------------------------
                  HL-Gap            0.1798320 Eh            4.8935 eV

     #   Z          covCN         q      C6AA      α(0)
     1   6 C        2.833    -0.196    33.160     9.436
     2   6 C        2.756     0.152    24.682     8.135
     3   1 H        0.926    -0.032     3.682     3.001
     4   1 H        0.926    -0.018     3.385     2.877
     5   8 O        0.857    -0.720    29.264     7.253
     6   1 H        0.920    -0.113     6.033     3.841
     7   8 O        1.604    -0.712    28.047     7.148
     8   1 H        0.800     0.300     0.722     1.335
     9   1 H        0.805     0.339     0.614     1.231

Wiberg/Mayer (AO) data.
largest (>0.10) Wiberg bond orders for each atom

     #   Z sym  total        # sym  WBO       # sym  WBO       # sym  WBO
 ---------------------------------------------------------------------------
     1   6 C    3.910 --     2 C    1.722     3 H    0.982     4 H    0.979
                             5 O    0.222
     2   6 C    3.963 --     1 C    1.722     5 O    1.307     6 H    0.930
     3   1 H    0.999 --     1 C    0.982
     4   1 H    1.000 --     1 C    0.979
     5   8 O    1.710 --     2 C    1.307     1 C    0.222
     6   1 H    0.987 --     2 C    0.930
     7   8 O    1.746 --     9 H    0.884     8 H    0.813
     8   1 H    0.910 --     7 O    0.813
     9   1 H    0.885 --     7 O    0.884
 ---------------------------------------------------------------------------

molecular dipole:
                 x           y           z       tot (Debye)
 q only:       13.689       7.057      -3.788
   full:       13.641       6.755      -3.905      39.943

 projected vibrational frequencies (cm⁻¹)
eigval :       -0.00    -0.00    -0.00    -0.00    -0.00     0.00
eigval :       55.46    86.10   102.10   271.69   508.10   544.44
eigval :      655.89   676.08   846.34   984.09  1004.86  1222.29
eigval :     1372.65  1408.50  1535.52  1681.70  2539.75  2782.90
eigval :     3077.46  3095.81  3609.83

   temp. (K)  partition function   enthalpy   heat capacity  entropy
                                   cal/mol     cal/K/mol   cal/K/mol   J/K/mol
 298.15  VIB   58.7                 2269.761     13.103     15.132
         ROT  0.707E+05              888.752      2.981     25.171
         INT  0.415E+07             3158.513     16.084     40.304
         TR   0.462E+27             1481.254      4.968     38.230
         TOT                        4639.7672    21.0517    78.5337   328.5850

       T/K    H(0)-H(T)+PV         H(T)/Eh          T*S/Eh         G(T)/Eh
   ------------------------------------------------------------------------
    298.15    0.739394E-02    0.713229E-01    0.373139E-01    0.340090E-01
   ------------------------------------------------------------------------

         :::::::::::::::::::::::::::::::::::::::::::::::::::::
         ::                  THERMODYNAMIC                  ::
         :::::::::::::::::::::::::::::::::::::::::::::::::::::
         :: total free energy         -15.190416273607 Eh   ::
         ::.................................................::
         :: total energy              -15.224425306996 Eh   ::
         :: zero point energy           0.063928993593 Eh   ::
         :: G(RRHO) w/o ZPVE           -0.029919960204 Eh   ::
         :: G(RRHO) contrib.            0.034009033389 Eh   ::
         :::::::::::::::::::::::::::::::::::::::::::::::::::::

           -------------------------------------------------
          | TOTAL ENERGY              -15.224425306996 Eh   |
          | TOTAL ENTHALPY            -15.153102373766 Eh   |
          | TOTAL FREE ENERGY         -15.190416273607 Eh   |
          | GRADIENT NORM               0.000591946726 Eh/α |
          | HOMO-LUMO GAP               4.893477654576 eV   |
           -------------------------------------------------

 * finished run on 2025/10/18 at 02:33:59.141
normal termination of xtb
