   * xtb version 6.7.1 (edcfbbe) compiled by 'albert@albert-system' on 2024-07-22

   ID    Z sym.   atoms
    1    6 C      1, 2
    2    1 H      3, 4, 6, 8, 9
    3    8 O      5, 7

          program call               : xtb tb_lite_results_shiftn0p2_gp280_b0_rot0_complex.xyz --ohess --chrg -1 --alpb water
      * Solvation model:               ALPB
        Solvent                        water
        Solvent mass                       1.8000E+01 g/mol
          :  Hamiltonian                  GFN2-xTB          :
 * total energy  :   -15.2192784 Eh     change       -0.1467804E-10 Eh
 * total energy  :   -15.2225104 Eh     change       -0.3232032E-02 Eh
 * total energy  :   -15.2227102 Eh     change       -0.1998027E-03 Eh
 * total energy  :   -15.2227248 Eh     change       -0.1458677E-04 Eh
 * total energy  :   -15.2227192 Eh     change        0.5585102E-05 Eh
 * total energy  :   -15.2227337 Eh     change       -0.1450972E-04 Eh
 * total energy  :   -15.2227368 Eh     change       -0.3019416E-05 Eh
   *** GEOMETRY OPTIMIZATION CONVERGED AFTER 7 ITERATIONS ***

 final structure:
================
9
 xtb: 6.7.1 (edcfbbe)
C           -6.28198910588468       -4.18361213740730        0.82806319554122
C           -7.35583501080962       -4.59767525658075        1.51706593707764
H           -6.14926945348764       -4.45987676235892       -0.20299821456647
H           -5.52127932399102       -3.57140927398005        1.28128990158995
O           -7.67599903352427       -4.36960450929350        2.74354622289029
H           -8.08293669052576       -5.23447581222071        0.95419734043345
O           -6.14321859207897       -2.85642261775182        4.28584413220383
H           -6.73544544429631       -3.43432682151841        3.72764554442374
H           -5.47994283355595       -2.51703693898417        3.67710791155563

          :  Hamiltonian                  GFN2-xTB          :
         :: gradient norm              0.000678065956 Eh/a0 ::
         :: HOMO-LUMO gap              4.893400457694 eV    ::
         :: SCC energy               -15.367669800947 Eh    ::
         :: -> dispersion             -0.003933120816 Eh    ::
         :: -> Gsolv                  -0.106941733104 Eh    ::
         :: repulsion energy           0.144933031485 Eh    ::

    * Orbital Energies and Occupations

         #    Occupation            Energy/Eh            Energy/eV
      -------------------------------------------------------------
         1        2.0000           -0.6489875             -17.6599
         2        2.0000           -0.6292249             -17.1221
         3        2.0000           -0.5705789             -15.5262
         4        2.0000           -0.5345425             -14.5456
         5        2.0000           -0.5186844             -14.1141
         6        2.0000           -0.4858400             -13.2204
         7        2.0000           -0.4816202             -13.1056
         8        2.0000           -0.4489099             -12.2155
         9        2.0000           -0.4401734             -11.9777
        10        2.0000           -0.4225797             -11.4990
        11        2.0000           -0.4138716             -11.2620
        12        2.0000           -0.3436656              -9.3516
        13        2.0000           -0.3173018              -8.6342 (HOMO)
        14                         -0.1374727              -3.7408 (LUMO)
        15                          0.1104411               3.0053
        16                          0.1519777               4.1355
        17                          0.1876187               5.1054
        18                          0.2500579               6.8044
        19                          0.3240191               8.8170
        20                          0.4772491              12.9866
        21                          0.6453023              17.5596
      -------------------------------------------------------------
                  HL-Gap            0.1798291 Eh            4.8934 eV

     #   Z          covCN         q      C6AA      α(0)
     1   6 C        2.833    -0.199    33.248     9.449
     2   6 C        2.756     0.155    24.625     8.126
     3   1 H        0.926    -0.033     3.694     3.005
     4   1 H        0.926    -0.022     3.473     2.914
     5   8 O        0.856    -0.719    29.245     7.250
     6   1 H        0.920    -0.114     6.063     3.851
     7   8 O        1.605    -0.698    27.662     7.098
     8   1 H        0.800     0.310     0.692     1.307
     9   1 H        0.805     0.320     0.664     1.280

Wiberg/Mayer (AO) data.
largest (>0.10) Wiberg bond orders for each atom

     #   Z sym  total        # sym  WBO       # sym  WBO       # sym  WBO
 ---------------------------------------------------------------------------
     1   6 C    3.904 --     2 C    1.712     3 H    0.982     4 H    0.979
                             5 O    0.226
     2   6 C    3.962 --     1 C    1.712     5 O    1.315     6 H    0.929
     3   1 H    0.999 --     1 C    0.982
     4   1 H    1.000 --     1 C    0.979
     5   8 O    1.711 --     2 C    1.315     1 C    0.226
     6   1 H    0.987 --     2 C    0.929
     7   8 O    1.755 --     9 H    0.896     8 H    0.814
     8   1 H    0.904 --     7 O    0.814
     9   1 H    0.898 --     7 O    0.896
 ---------------------------------------------------------------------------

molecular dipole:
                 x           y           z       tot (Debye)
 q only:       13.834       7.950      -5.089
   full:       13.841       7.829      -5.506      42.773

 projected vibrational frequencies (cm⁻¹)
eigval :       -0.00    -0.00    -0.00     0.00     0.00     0.00
eigval :     -116.65    54.36    83.40   264.41   484.24   538.78
eigval :      633.55   672.80   822.77   981.79   999.35  1219.15
eigval :     1377.33  1411.39  1527.95  1679.84  2538.26  2828.66
eigval :     3083.60  3094.31  3614.23

   temp. (K)  partition function   enthalpy   heat capacity  entropy
                                   cal/mol     cal/K/mol   cal/K/mol   J/K/mol
 298.15  VIB   24.7                 1847.936     11.354     11.985
         ROT  0.724E+05              888.752      2.981     25.218
         INT  0.179E+07             2736.688     14.335     37.203
         TR   0.462E+27             1481.254      4.968     38.230
         TOT                        4217.9423    19.3033    75.4335   315.6137

       T/K    H(0)-H(T)+PV         H(T)/Eh          T*S/Eh         G(T)/Eh
   ------------------------------------------------------------------------
    298.15    0.672172E-02    0.703057E-01    0.358409E-01    0.344648E-01
   ------------------------------------------------------------------------

         :::::::::::::::::::::::::::::::::::::::::::::::::::::
         ::                  THERMODYNAMIC                  ::
         :::::::::::::::::::::::::::::::::::::::::::::::::::::
         :: total free energy         -15.188271940905 Eh   ::
         ::.................................................::
         :: total energy              -15.222736769684 Eh   ::
         :: zero point energy           0.063583987510 Eh   ::
         :: G(RRHO) w/o ZPVE           -0.029119158730 Eh   ::
         :: G(RRHO) contrib.            0.034464828780 Eh   ::
         :::::::::::::::::::::::::::::::::::::::::::::::::::::

           -------------------------------------------------
          | TOTAL ENERGY              -15.222736769684 Eh   |
          | TOTAL ENTHALPY            -15.152431063283 Eh   |
          | TOTAL FREE ENERGY         -15.188271940905 Eh   |
          | GRADIENT NORM               0.000678057842 Eh/α |
          | HOMO-LUMO GAP               4.893398718069 eV   |
           -------------------------------------------------

 * finished run on 2025/10/18 at 02:33:53.752
normal termination of xtb
