   * xtb version 6.7.1 (edcfbbe) compiled by 'albert@albert-system' on 2024-07-22

   ID    Z sym.   atoms
    1    6 C      1, 2
    2    1 H      3, 4, 6, 8, 9
    3    8 O      5, 7

          program call               : xtb tb_lite_results_shiftn0p2_gp325_b0_rot0_complex.xyz --ohess --chrg -1 --alpb water
      * Solvation model:               ALPB
        Solvent                        water
        Solvent mass                       1.8000E+01 g/mol
          :  Hamiltonian                  GFN2-xTB          :
 * total energy  :   -15.2190515 Eh     change       -0.5451639E-11 Eh
 * total energy  :   -15.2223052 Eh     change       -0.3253689E-02 Eh
 * total energy  :   -15.2225323 Eh     change       -0.2271644E-03 Eh
 * total energy  :   -15.2225540 Eh     change       -0.2163900E-04 Eh
 * total energy  :   -15.2226017 Eh     change       -0.4776231E-04 Eh
 * total energy  :   -15.2226316 Eh     change       -0.2986474E-04 Eh
 * total energy  :   -15.2226449 Eh     change       -0.1330087E-04 Eh
 * total energy  :   -15.2226727 Eh     change       -0.2778016E-04 Eh
 * total energy  :   -15.2226948 Eh     change       -0.2210668E-04 Eh
 * total energy  :   -15.2227202 Eh     change       -0.2541443E-04 Eh
 * total energy  :   -15.2243028 Eh     change       -0.1816834E-04 Eh
 * total energy  :   -15.2243183 Eh     change       -0.1545663E-04 Eh
 * total energy  :   -15.2243312 Eh     change       -0.1292793E-04 Eh
 * total energy  :   -15.2243443 Eh     change       -0.1316121E-04 Eh
 * total energy  :   -15.2243531 Eh     change       -0.8762629E-05 Eh
 * total energy  :   -15.2243621 Eh     change       -0.9009237E-05 Eh
 * total energy  :   -15.2243720 Eh     change       -0.9835113E-05 Eh
 * total energy  :   -15.2243782 Eh     change       -0.6286808E-05 Eh
 * total energy  :   -15.2243811 Eh     change       -0.2903345E-05 Eh
   *** GEOMETRY OPTIMIZATION CONVERGED AFTER 51 ITERATIONS ***

 final structure:
================
9
 xtb: 6.7.1 (edcfbbe)
C           -6.50375081698422       -4.08450410276502        0.62857256632463
C           -7.18645231890805       -4.74023006898395        1.57717987035654
H           -6.34571439199574       -4.51957446785324       -0.34270768224082
H           -6.10497430423457       -3.10119461634231        0.81244657937653
O           -7.46034092718314       -4.36301666834958        2.78042679981956
H           -7.57169304296148       -5.75383950612680        1.30699209794582
O           -6.47553474558933       -2.03479718357959        3.52159253157391
H           -6.88407430929676       -2.89109284854625        3.20117415605074
H           -5.93698928988323       -2.29179148261648        4.27746572599392

          :  Hamiltonian                  GFN2-xTB          :
         :: gradient norm              0.000548468886 Eh/a0 ::
         :: HOMO-LUMO gap              4.893896487285 eV    ::
         :: SCC energy               -15.368817252128 Eh    ::
         :: -> dispersion             -0.003947349901 Eh    ::
         :: -> Gsolv                  -0.110737541971 Eh    ::
         :: repulsion energy           0.144436105154 Eh    ::

    * Orbital Energies and Occupations

         #    Occupation            Energy/Eh            Energy/eV
      -------------------------------------------------------------
         1        2.0000           -0.6458150             -17.5735
         2        2.0000           -0.6278601             -17.0849
         3        2.0000           -0.5689585             -15.4821
         4        2.0000           -0.5328855             -14.5006
         5        2.0000           -0.5138365             -13.9822
         6        2.0000           -0.4845465             -13.1852
         7        2.0000           -0.4799860             -13.0611
         8        2.0000           -0.4460312             -12.1371
         9        2.0000           -0.4388390             -11.9414
        10        2.0000           -0.4203874             -11.4393
        11        2.0000           -0.4099081             -11.1542
        12        2.0000           -0.3429443              -9.3320
        13        2.0000           -0.3161948              -8.6041 (HOMO)
        14                         -0.1363473              -3.7102 (LUMO)
        15                          0.1216776               3.3110
        16                          0.1511087               4.1119
        17                          0.1831480               4.9837
        18                          0.2731210               7.4320
        19                          0.3039805               8.2717
        20                          0.4833345              13.1522
        21                          0.6421032              17.4725
      -------------------------------------------------------------
                  HL-Gap            0.1798474 Eh            4.8939 eV

     #   Z          covCN         q      C6AA      α(0)
     1   6 C        2.834    -0.196    33.160     9.437
     2   6 C        2.756     0.152    24.684     8.136
     3   1 H        0.926    -0.032     3.676     2.998
     4   1 H        0.926    -0.017     3.379     2.875
     5   8 O        0.857    -0.720    29.261     7.253
     6   1 H        0.920    -0.112     6.005     3.833
     7   8 O        1.604    -0.713    28.060     7.149
     8   1 H        0.800     0.300     0.722     1.335
     9   1 H        0.805     0.338     0.616     1.233

Wiberg/Mayer (AO) data.
largest (>0.10) Wiberg bond orders for each atom

     #   Z sym  total        # sym  WBO       # sym  WBO       # sym  WBO
 ---------------------------------------------------------------------------
     1   6 C    3.911 --     2 C    1.722     3 H    0.982     4 H    0.979
                             5 O    0.222
     2   6 C    3.963 --     1 C    1.722     5 O    1.306     6 H    0.930
     3   1 H    0.999 --     1 C    0.982
     4   1 H    1.000 --     1 C    0.979
     5   8 O    1.711 --     2 C    1.306     1 C    0.222
     6   1 H    0.987 --     2 C    0.930
     7   8 O    1.746 --     9 H    0.885     8 H    0.812
     8   1 H    0.910 --     7 O    0.812
     9   1 H    0.886 --     7 O    0.885
 ---------------------------------------------------------------------------

molecular dipole:
                 x           y           z       tot (Debye)
 q only:       13.708       7.317      -4.040
   full:       13.732       7.008      -4.165      40.592

 projected vibrational frequencies (cm⁻¹)
eigval :       -0.00    -0.00    -0.00     0.00     0.00     0.00
eigval :       77.16    87.00   121.86   272.89   507.26   540.20
eigval :      654.95   675.39   852.84   983.69  1004.40  1222.24
eigval :     1372.03  1407.71  1533.45  1681.11  2545.54  2762.55
eigval :     3079.61  3098.23  3602.69

   temp. (K)  partition function   enthalpy   heat capacity  entropy
                                   cal/mol     cal/K/mol   cal/K/mol   J/K/mol
 298.15  VIB   38.5                 2218.431     13.354     14.483
         ROT  0.706E+05              888.752      2.981     25.168
         INT  0.272E+07             3107.183     16.335     39.651
         TR   0.462E+27             1481.254      4.968     38.230
         TOT                        4588.4369    21.3030    77.8812   325.8550

       T/K    H(0)-H(T)+PV         H(T)/Eh          T*S/Eh         G(T)/Eh
   ------------------------------------------------------------------------
    298.15    0.731214E-02    0.712895E-01    0.370039E-01    0.342856E-01
   ------------------------------------------------------------------------

         :::::::::::::::::::::::::::::::::::::::::::::::::::::
         ::                  THERMODYNAMIC                  ::
         :::::::::::::::::::::::::::::::::::::::::::::::::::::
         :: total free energy         -15.190095539231 Eh   ::
         ::.................................................::
         :: total energy              -15.224381147738 Eh   ::
         :: zero point energy           0.063977348018 Eh   ::
         :: G(RRHO) w/o ZPVE           -0.029691739511 Eh   ::
         :: G(RRHO) contrib.            0.034285608507 Eh   ::
         :::::::::::::::::::::::::::::::::::::::::::::::::::::

           -------------------------------------------------
          | TOTAL ENERGY              -15.224381147738 Eh   |
          | TOTAL ENTHALPY            -15.153091660152 Eh   |
          | TOTAL FREE ENERGY         -15.190095539231 Eh   |
          | GRADIENT NORM               0.000548478441 Eh/α |
          | HOMO-LUMO GAP               4.893897659509 eV   |
           -------------------------------------------------

 * finished run on 2025/10/18 at 02:33:57.859
normal termination of xtb
