   * xtb version 6.7.1 (edcfbbe) compiled by 'albert@albert-system' on 2024-07-22

   ID    Z sym.   atoms
    1    6 C      1, 2
    2    1 H      3, 4, 6
    3    8 O      5

          program call               : xtb tb_lite_results_shiftn0p15_gp280_b0_rot0_solute.xyz --ohess --chrg -1
          :  Hamiltonian                  GFN2-xTB          :
 * total energy  :   -10.0197613 Eh     change       -0.2106759E-11 Eh
 * total energy  :   -10.0211852 Eh     change       -0.1423858E-02 Eh
 * total energy  :   -10.0212814 Eh     change       -0.9624169E-04 Eh
 * total energy  :   -10.0212962 Eh     change       -0.1472084E-04 Eh
 * total energy  :   -10.0212579 Eh     change        0.3829204E-04 Eh
 * total energy  :   -10.0212956 Eh     change       -0.3775766E-04 Eh
 * total energy  :   -10.0212991 Eh     change       -0.3450084E-05 Eh
   *** GEOMETRY OPTIMIZATION CONVERGED AFTER 7 ITERATIONS ***

 final structure:
================
6
 xtb: 6.7.1 (edcfbbe)
C           -6.28082312749851       -4.18075973280570        0.83094135124602
C           -7.34956382419981       -4.59062002228630        1.55333260234799
H           -6.15953176499507       -4.46276878277334       -0.20818000768772
H           -5.50675645245110       -3.55708239527987        1.25730818944861
O           -7.65185934146775       -4.36110400016383        2.75802475027378
H           -8.07495869258548       -5.23774919725674        0.95890615012269

          :  Hamiltonian                  GFN2-xTB          :
         :: gradient norm              0.000749378832 Eh/a0 ::
         :: HOMO-LUMO gap              4.832933987766 eV    ::
         :: SCC energy               -10.134607666428 Eh    ::
         :: -> dispersion             -0.002661610293 Eh    ::
         :: repulsion energy           0.113308584033 Eh    ::

    * Orbital Energies and Occupations

         #    Occupation            Energy/Eh            Energy/eV
      -------------------------------------------------------------
         1        2.0000           -0.4081886             -11.1074
         2        2.0000           -0.3577111              -9.7338
         3        2.0000           -0.3129537              -8.5159
         4        2.0000           -0.2754476              -7.4953
         5        2.0000           -0.2395693              -6.5190
         6        2.0000           -0.2250484              -6.1239
         7        2.0000           -0.2168305              -5.9003
         8        2.0000           -0.1200359              -3.2663
         9        2.0000           -0.0995085              -2.7078 (HOMO)
        10                          0.0780986               2.1252 (LUMO)
        11                          0.3294169               8.9639
        12                          0.3698793              10.0649
        13                          0.4916589              13.3787
        14                          0.6845646              18.6280
        15                          0.8551127              23.2688
      -------------------------------------------------------------
                  HL-Gap            0.1776070 Eh            4.8329 eV

     #   Z          covCN         q      C6AA      α(0)
     1   6 C        2.832    -0.217    33.769     9.523
     2   6 C        2.751     0.164    24.440     8.095
     3   1 H        0.925    -0.087     5.128     3.541
     4   1 H        0.925    -0.064     4.438     3.294
     5   8 O        0.856    -0.655    27.500     7.031
     6   1 H        0.915    -0.142     7.310     4.229

Wiberg/Mayer (AO) data.
largest (>0.10) Wiberg bond orders for each atom

     #   Z sym  total        # sym  WBO       # sym  WBO       # sym  WBO
 ---------------------------------------------------------------------------
     1   6 C    3.838 --     2 C    1.629     4 H    0.977     3 H    0.977
                             5 O    0.250
     2   6 C    3.968 --     1 C    1.629     5 O    1.428     6 H    0.909
     3   1 H    0.992 --     1 C    0.977
     4   1 H    0.996 --     1 C    0.977
     5   8 O    1.741 --     2 C    1.428     1 C    0.250
     6   1 H    0.980 --     2 C    0.909
 ---------------------------------------------------------------------------

molecular dipole:
                 x           y           z       tot (Debye)
 q only:       13.603       8.252      -3.645
   full:       13.660       8.185      -3.941      41.697

 projected vibrational frequencies (cm⁻¹)
eigval :       -0.00    -0.00    -0.00     0.00     0.00     0.00
eigval :      511.83   541.48   665.74   972.37  1009.64  1241.28
eigval :     1394.67  1454.72  1718.27  2361.41  2992.27  3027.86

   temp. (K)  partition function   enthalpy   heat capacity  entropy
                                   cal/mol     cal/K/mol   cal/K/mol   J/K/mol
 298.15  VIB   1.26                  404.245      4.466      1.808
         ROT  0.959E+04              888.752      2.981     21.200
         INT  0.120E+05             1292.997      7.447     23.008
         TR   0.273E+27             1481.254      4.968     37.189
         TOT                        2774.2511    12.4152    60.1964   251.8617

       T/K    H(0)-H(T)+PV         H(T)/Eh          T*S/Eh         G(T)/Eh
   ------------------------------------------------------------------------
    298.15    0.442105E-02    0.451810E-01    0.286012E-01    0.165797E-01
   ------------------------------------------------------------------------

         :::::::::::::::::::::::::::::::::::::::::::::::::::::
         ::                  THERMODYNAMIC                  ::
         :::::::::::::::::::::::::::::::::::::::::::::::::::::
         :: total free energy         -10.004719354893 Eh   ::
         ::.................................................::
         :: total energy              -10.021299082395 Eh   ::
         :: zero point energy           0.040759923060 Eh   ::
         :: G(RRHO) w/o ZPVE           -0.024180195558 Eh   ::
         :: G(RRHO) contrib.            0.016579727502 Eh   ::
         :::::::::::::::::::::::::::::::::::::::::::::::::::::

           -------------------------------------------------
          | TOTAL ENERGY              -10.021299082395 Eh   |
          | TOTAL ENTHALPY             -9.976118108846 Eh   |
          | TOTAL FREE ENERGY         -10.004719354893 Eh   |
          | GRADIENT NORM               0.000749350860 Eh/α |
          | HOMO-LUMO GAP               4.832933378255 eV   |
           -------------------------------------------------

 * finished run on 2025/10/18 at 02:33:56.496
normal termination of xtb
