   * xtb version 6.7.1 (edcfbbe) compiled by 'albert@albert-system' on 2024-07-22

   ID    Z sym.   atoms
    1    6 C      1, 2, 4, 6, 8, 10
    2   17 Cl     3
    3    1 H      5, 7, 9, 11
    4    8 O      12

          program call               : xtb xyz.xyz --alpb water --charge -1 --ohess
      * Solvation model:               ALPB
        Solvent                        water
        Solvent mass                       1.8000E+01 g/mol
          :  Hamiltonian                  GFN2-xTB          :
 * total energy  :   -23.7719582 Eh     change       -0.2212275E-10 Eh
 * total energy  :   -23.7979768 Eh     change       -0.2601857E-01 Eh
 * total energy  :   -23.8003811 Eh     change       -0.2404315E-02 Eh
 * total energy  :   -23.8005198 Eh     change       -0.1386681E-03 Eh
 * total energy  :   -23.8005420 Eh     change       -0.2219949E-04 Eh
 * total energy  :   -23.8005487 Eh     change       -0.6710045E-05 Eh
 * total energy  :   -23.8005494 Eh     change       -0.7555745E-06 Eh
   *** GEOMETRY OPTIMIZATION CONVERGED AFTER 7 ITERATIONS ***

 final structure:
================
12
 xtb: 6.7.1 (edcfbbe)
C           -4.06379980303269       -1.94186461368942        1.92604276155963
C           -3.77419743520894       -2.42052281467683        0.67132333827023
Cl          -7.41054304514918       -3.92693674693023        2.81285806167543
C           -5.19891616513417       -2.37120101704925        2.66820410613438
H           -3.42654548981850       -1.20748430591751        2.40262806207724
C           -4.58721317010730       -3.36165318549777        0.05572837860519
H           -2.89510435813755       -2.05343663262362        0.15851091902013
C           -5.70825689055334       -3.81894623447235        0.72918587657278
H           -4.35673925002238       -3.73480017594954       -0.92922997579587
C           -5.99027572186983       -3.33457764416336        1.98399677608608
H           -6.36753446560425       -4.55097409122833        0.28646784846655
O           -5.47910420536186       -1.93309753780179        3.83594084732824

          :  Hamiltonian                  GFN2-xTB          :
         :: gradient norm              0.000237681754 Eh/a0 ::
         :: HOMO-LUMO gap              3.392193068809 eV    ::
         :: SCC energy               -24.096316177316 Eh    ::
         :: -> dispersion             -0.011453016905 Eh    ::
         :: -> Gsolv                  -0.095177157456 Eh    ::
         :: repulsion energy           0.295766756802 Eh    ::

    * Orbital Energies and Occupations

         #    Occupation            Energy/Eh            Energy/eV
      -------------------------------------------------------------
         1        2.0000           -1.0480755             -28.5196
       ...           ...                  ...                  ...
         9        2.0000           -0.4888916             -13.3034
        10        2.0000           -0.4871533             -13.2561
        11        2.0000           -0.4779818             -13.0065
        12        2.0000           -0.4667800             -12.7017
        13        2.0000           -0.4586035             -12.4792
        14        2.0000           -0.4311346             -11.7318
        15        2.0000           -0.4250112             -11.5651
        16        2.0000           -0.4238961             -11.5348
        17        2.0000           -0.4217258             -11.4757
        18        2.0000           -0.4020182             -10.9395
        19        2.0000           -0.3790543             -10.3146
        20        2.0000           -0.3422810              -9.3139
        21        2.0000           -0.3282710              -8.9327 (HOMO)
        22                         -0.2036100              -5.5405 (LUMO)
        23                         -0.1806088              -4.9146
        24                         -0.1269742              -3.4551
        25                         -0.0691649              -1.8821
        26                          0.0355533               0.9675
        27                          0.0384344               1.0459
        28                          0.0399051               1.0859
        29                          0.0518179               1.4100
        30                          0.1379256               3.7531
        31                          0.1482165               4.0332
        32                          0.1685788               4.5873
       ...                                ...                  ...
        41                          0.6929127              18.8551
      -------------------------------------------------------------
                  HL-Gap            0.1246609 Eh            3.3922 eV

     #   Z          covCN         q      C6AA      α(0)
     1   6 C        2.924    -0.099    30.481     9.054
     2   6 C        2.914    -0.049    29.229     8.865
     3  17 Cl       0.963    -0.280   108.096    15.906
     4   6 C        2.863     0.168    24.385     8.094
     5   1 H        0.925    -0.003     3.106     2.756
     6   6 C        2.922    -0.076    29.885     8.965
     7   1 H        0.925     0.021     2.712     2.575
     8   6 C        2.951    -0.056    29.381     8.890
     9   1 H        0.926     0.027     2.631     2.536
    10   6 C        2.893     0.021    27.545     8.605
    11   1 H        0.926     0.033     2.543     2.494
    12   8 O        0.857    -0.708    28.916     7.210

Wiberg/Mayer (AO) data.
largest (>0.10) Wiberg bond orders for each atom

     #   Z sym  total        # sym  WBO       # sym  WBO       # sym  WBO
 ---------------------------------------------------------------------------
     1   6 C    3.980 --     2 C    1.502     4 C    1.233     5 H    0.971
                            12 O    0.102
     2   6 C    3.991 --     1 C    1.502     6 C    1.397     7 H    0.970
     3  17 Cl   1.011 --    10 C    0.899
     4   6 C    3.967 --    12 O    1.386     1 C    1.233    10 C    1.229
     5   1 H    1.000 --     1 C    0.971
     6   6 C    3.979 --     8 C    1.408     2 C    1.397     9 H    0.971
     7   1 H    0.999 --     2 C    0.970
     8   6 C    3.987 --    10 C    1.458     6 C    1.408    11 H    0.968
     9   1 H    0.999 --     6 C    0.971
    10   6 C    3.854 --     8 C    1.458     4 C    1.229     3 Cl   0.899
                            12 O    0.106
    11   1 H    0.999 --     8 C    0.968
    12   8 O    1.695 --     4 C    1.386    10 C    0.106     1 C    0.102
 ---------------------------------------------------------------------------

molecular dipole:
                 x           y           z       tot (Debye)
 q only:       11.015       4.701      -6.237
   full:       11.232       4.912      -6.147      34.857

 projected vibrational frequencies (cm⁻¹)
eigval :       -0.00    -0.00     0.00     0.00     0.00     0.00
eigval :      136.44   207.71   240.04   347.74   392.72   509.14
eigval :      513.46   531.49   649.10   658.51   759.14   827.23
eigval :      844.76   877.84   903.08   994.38  1078.20  1139.55
eigval :     1165.71  1217.06  1297.46  1349.19  1438.65  1497.60
eigval :     1529.17  1597.60  3031.78  3048.29  3069.70  3090.75

   temp. (K)  partition function   enthalpy   heat capacity  entropy
                                   cal/mol     cal/K/mol   cal/K/mol   J/K/mol
 298.15  VIB   11.0                 2382.545     18.892     12.750
         ROT  0.389E+06              888.752      2.981     28.559
         INT  0.427E+07             3271.297     21.873     41.309
         TR   0.139E+28             1481.254      4.968     40.425
         TOT                        4752.5513    26.8410    81.7344   341.9769

       T/K    H(0)-H(T)+PV         H(T)/Eh          T*S/Eh         G(T)/Eh
   ------------------------------------------------------------------------
    298.15    0.757367E-02    0.871807E-01    0.388347E-01    0.483461E-01
   ------------------------------------------------------------------------

         :::::::::::::::::::::::::::::::::::::::::::::::::::::
         ::                  THERMODYNAMIC                  ::
         :::::::::::::::::::::::::::::::::::::::::::::::::::::
         :: total free energy         -23.752203336885 Eh   ::
         ::.................................................::
         :: total energy              -23.800549420518 Eh   ::
         :: zero point energy           0.079607077041 Eh   ::
         :: G(RRHO) w/o ZPVE           -0.031260993408 Eh   ::
         :: G(RRHO) contrib.            0.048346083633 Eh   ::
         :::::::::::::::::::::::::::::::::::::::::::::::::::::

           -------------------------------------------------
          | TOTAL ENERGY              -23.800549420518 Eh   |
          | TOTAL ENTHALPY            -23.713368670947 Eh   |
          | TOTAL FREE ENERGY         -23.752203336885 Eh   |
          | GRADIENT NORM               0.000237381687 Eh/α |
          | HOMO-LUMO GAP               3.392196259868 eV   |
           -------------------------------------------------

 * finished run on 2025/10/18 at 06:27:34.722
