   * xtb version 6.7.1 (edcfbbe) compiled by 'albert@albert-system' on 2024-07-22

   ID    Z sym.   atoms
    1    6 C      1, 2
    2    7 N      3
    3    8 O      4
    4    1 H      5-8

          program call               : xtb xyz.xyz --charge -1 --ohess
          :  Hamiltonian                  GFN2-xTB          :
 * total energy  :   -13.4925888 Eh     change       -0.5172573E-10 Eh
 * total energy  :   -13.4956014 Eh     change       -0.3012544E-02 Eh
 * total energy  :   -13.4961749 Eh     change       -0.5735070E-03 Eh
 * total energy  :   -13.4962764 Eh     change       -0.1014832E-03 Eh
 * total energy  :   -13.4963384 Eh     change       -0.6199862E-04 Eh
 * total energy  :   -13.4963622 Eh     change       -0.2387236E-04 Eh
 * total energy  :   -13.4963801 Eh     change       -0.1783023E-04 Eh
 * total energy  :   -13.4964050 Eh     change       -0.2498773E-04 Eh
 * total energy  :   -13.4963604 Eh     change        0.4463924E-04 Eh
 * total energy  :   -13.4964661 Eh     change       -0.1056614E-03 Eh
 * total energy  :   -13.4964340 Eh     change        0.5844184E-04 Eh
 * total energy  :   -13.4965503 Eh     change       -0.1162301E-03 Eh
 * total energy  :   -13.4965696 Eh     change       -0.1931017E-04 Eh
 * total energy  :   -13.4965773 Eh     change       -0.7692196E-05 Eh
 * total energy  :   -13.4965938 Eh     change       -0.1651314E-04 Eh
 * total energy  :   -13.4966014 Eh     change       -0.7582201E-05 Eh
 * total energy  :   -13.4966126 Eh     change       -0.1119780E-04 Eh
 * total energy  :   -13.4966155 Eh     change       -0.2968164E-05 Eh
 * total energy  :   -13.4966174 Eh     change       -0.1853745E-05 Eh
   *** GEOMETRY OPTIMIZATION CONVERGED AFTER 20 ITERATIONS ***

 final structure:
================
8
 xtb: 6.7.1 (edcfbbe)
C           -3.81727020793748       -0.65676399297879       -0.68091904370297
C           -2.51270202842699        0.15973431702694       -0.86501775406381
N           -1.46935635766428       -0.45650693128356       -0.39124531135527
O           -2.59662331955538        1.27867045389296       -1.42738535774131
H           -4.53778228577159       -0.07325125709081       -0.10566464039996
H           -4.25576811627160       -0.87164739300086       -1.65672194841947
H           -3.60212239752717       -1.58880477321337       -0.16306535014273
H           -0.62962528684550        0.11804357664750       -0.53487859417450

          :  Hamiltonian                  GFN2-xTB          :
         :: gradient norm              0.000096851784 Eh/a0 ::
         :: HOMO-LUMO gap              5.152801969365 eV    ::
         :: SCC energy               -13.634500621297 Eh    ::
         :: -> dispersion             -0.003835415017 Eh    ::
         :: repulsion energy           0.137883246028 Eh    ::

    * Orbital Energies and Occupations

         #    Occupation            Energy/Eh            Energy/eV
      -------------------------------------------------------------
         1        2.0000           -0.4323173             -11.7640
         2        2.0000           -0.4072893             -11.0829
         3        2.0000           -0.3768916             -10.2557
         4        2.0000           -0.3227963              -8.7837
         5        2.0000           -0.3042310              -8.2785
         6        2.0000           -0.2988627              -8.1325
         7        2.0000           -0.2649250              -7.2090
         8        2.0000           -0.2488292              -6.7710
         9        2.0000           -0.2411537              -6.5621
        10        2.0000           -0.1552825              -4.2255
        11        2.0000           -0.1359330              -3.6989
        12        2.0000           -0.1310932              -3.5672 (HOMO)
        13                          0.0582687               1.5856 (LUMO)
        14                          0.2968581               8.0779
        15                          0.3489401               9.4951
        16                          0.3846586              10.4671
        17                          0.3960369              10.7767
        18                          0.4087990              11.1240
        19                          0.5853501              15.9282
        20                          0.8477601              23.0687
      -------------------------------------------------------------
                  HL-Gap            0.1893619 Eh            5.1528 eV

     #   Z          covCN         q      C6AA      α(0)
     1   6 C        3.756    -0.106    22.576     6.775
     2   6 C        2.738     0.270    22.435     7.755
     3   7 N        1.779    -0.546    35.855     8.868
     4   8 O        0.857    -0.650    27.372     7.014
     5   1 H        0.924    -0.011     3.250     2.819
     6   1 H        0.924    -0.011     3.253     2.820
     7   1 H        0.925    -0.001     3.080     2.744
     8   1 H        0.859     0.054     2.283     2.367

Wiberg/Mayer (AO) data.
largest (>0.10) Wiberg bond orders for each atom

     #   Z sym  total        # sym  WBO       # sym  WBO       # sym  WBO
 ---------------------------------------------------------------------------
     1   6 C    3.979 --     7 H    0.992     5 H    0.985     6 H    0.985
                             2 C    0.933
     2   6 C    3.959 --     3 N    1.558     4 O    1.463     1 C    0.933
     3   7 N    2.808 --     2 C    1.558     8 H    0.970     4 O    0.247
     4   8 O    1.778 --     2 C    1.463     3 N    0.247
     5   1 H    1.000 --     1 C    0.985
     6   1 H    1.000 --     1 C    0.985
     7   1 H    1.000 --     1 C    0.992
     8   1 H    0.997 --     3 N    0.970
 ---------------------------------------------------------------------------

molecular dipole:
                 x           y           z       tot (Debye)
 q only:        4.307      -0.851       1.832
   full:        4.176      -0.733       1.751      11.661

 projected vibrational frequencies (cm⁻¹)
eigval :       -0.00    -0.00    -0.00    -0.00    -0.00     0.00
eigval :       81.75   405.31   548.07   549.91   796.97   852.02
eigval :      976.13   985.95  1236.03  1334.58  1361.43  1494.64
eigval :     1498.48  1717.00  2967.60  2979.38  3013.66  3216.20

   temp. (K)  partition function   enthalpy   heat capacity  entropy
                                   cal/mol     cal/K/mol   cal/K/mol   J/K/mol
 298.15  VIB   4.41                 1081.319      8.229      6.477
         ROT  0.356E+05              888.752      2.981     23.805
         INT  0.157E+06             1970.072     11.210     30.282
         TR   0.428E+27             1481.254      4.968     38.080
         TOT                        3451.3255    16.1778    68.3619   286.0262

       T/K    H(0)-H(T)+PV         H(T)/Eh          T*S/Eh         G(T)/Eh
   ------------------------------------------------------------------------
    298.15    0.550004E-02    0.647668E-01    0.324809E-01    0.322858E-01
   ------------------------------------------------------------------------

         :::::::::::::::::::::::::::::::::::::::::::::::::::::
         ::                  THERMODYNAMIC                  ::
         :::::::::::::::::::::::::::::::::::::::::::::::::::::
         :: total free energy         -13.464331536287 Eh   ::
         ::.................................................::
         :: total energy              -13.496617375270 Eh   ::
         :: zero point energy           0.059266741953 Eh   ::
         :: G(RRHO) w/o ZPVE           -0.026980902970 Eh   ::
         :: G(RRHO) contrib.            0.032285838983 Eh   ::
         :::::::::::::::::::::::::::::::::::::::::::::::::::::

           -------------------------------------------------
          | TOTAL ENERGY              -13.496617375270 Eh   |
          | TOTAL ENTHALPY            -13.431850596055 Eh   |
          | TOTAL FREE ENERGY         -13.464331536287 Eh   |
          | GRADIENT NORM               0.000096890134 Eh/α |
          | HOMO-LUMO GAP               5.152798523348 eV   |
           -------------------------------------------------

 * finished run on 2025/10/18 at 04:32:06.746
