   * xtb version 6.7.1 (edcfbbe) compiled by 'albert@albert-system' on 2024-07-22

   ID    Z sym.   atoms
    1    6 C      1-6
    2    8 O      7, 13
    3    1 H      8-10, 12, 15
    4    7 N      11, 14

          program call               : xtb xyz.xyz --alpb water --charge -1 --ohess
      * Solvation model:               ALPB
        Solvent                        water
        Solvent mass                       1.8000E+01 g/mol
          :  Hamiltonian                  GFN2-xTB          :
 * total energy  :   -29.4618080 Eh     change       -0.4758434E-09 Eh
 * total energy  :   -29.5324593 Eh     change       -0.7065124E-01 Eh
 * total energy  :   -29.5402686 Eh     change       -0.7809363E-02 Eh
 * total energy  :   -29.5420629 Eh     change       -0.1794271E-02 Eh
 * total energy  :   -29.5422844 Eh     change       -0.2215451E-03 Eh
 * total energy  :   -29.5423740 Eh     change       -0.8956197E-04 Eh
 * total energy  :   -29.5424457 Eh     change       -0.7166867E-04 Eh
 * total energy  :   -29.5238440 Eh     change        0.1860163E-01 Eh
 * total energy  :   -29.5436764 Eh     change       -0.1983233E-01 Eh
 * total energy  :   -29.5447929 Eh     change       -0.1116542E-02 Eh
 * total energy  :   -29.5800106 Eh     change       -0.3685681E-02 Eh
 * total energy  :   -29.5820587 Eh     change       -0.2048082E-02 Eh
 * total energy  :   -29.5835213 Eh     change       -0.1462571E-02 Eh
 * total energy  :   -29.5841792 Eh     change       -0.6579181E-03 Eh
 * total energy  :   -29.5845452 Eh     change       -0.3660008E-03 Eh
 * total energy  :   -29.5846509 Eh     change       -0.1057048E-03 Eh
 * total energy  :   -29.5846734 Eh     change       -0.2249394E-04 Eh
 * total energy  :   -29.5846736 Eh     change       -0.1952662E-06 Eh
 * total energy  :   -29.5846786 Eh     change       -0.4959598E-05 Eh
   *** GEOMETRY OPTIMIZATION CONVERGED AFTER 25 ITERATIONS ***

 final structure:
================
15
 xtb: 6.7.1 (edcfbbe)
C           -2.05035515835761       -2.82093121897456        1.55885528784601
C           -2.54218247186881       -2.16615521975655        0.37267710743243
C           -3.70976395141500       -2.52165158493828       -0.20454904537135
C           -4.50380594939286       -3.56545894503798        0.34172231074632
C           -4.04905940443219       -4.23001814799481        1.50953527691392
C           -2.88170943954670       -3.87711883617354        2.09038487294640
O           -6.37274651140061       -4.85185215303521        0.25228418209859
H           -2.53905704116789       -4.38757057154675        2.98146069891558
H           -1.93399489755082       -1.37468809325943       -0.03551093149135
H           -4.07931370992518       -2.03065999854154       -1.09301970455255
N           -5.67372171306523       -3.92089843112213       -0.23938634601914
H           -4.67020093759375       -5.01983998244732        1.90785252903456
O           -6.07699848394518       -3.32574109031912       -1.27774761013566
N           -0.91975542094881       -2.43662354205677        2.06655945069947
H           -0.67579290938937       -2.97207218479600        2.89986392093677

          :  Hamiltonian                  GFN2-xTB          :
         :: gradient norm              0.000430907584 Eh/a0 ::
         :: HOMO-LUMO gap              1.755072665587 eV    ::
         :: SCC energy               -29.943599996137 Eh    ::
         :: -> dispersion             -0.013618699041 Eh    ::
         :: -> Gsolv                  -0.089604315476 Eh    ::
         :: repulsion energy           0.358921425380 Eh    ::

    * Orbital Energies and Occupations

         #    Occupation            Energy/Eh            Energy/eV
      -------------------------------------------------------------
         1        2.0000           -0.7165393             -19.4980
       ...           ...                  ...                  ...
        14        2.0000           -0.4874082             -13.2631
        15        2.0000           -0.4784823             -13.0202
        16        2.0000           -0.4776256             -12.9969
        17        2.0000           -0.4758598             -12.9488
        18        2.0000           -0.4455995             -12.1254
        19        2.0000           -0.4302465             -11.7076
        20        2.0000           -0.4294626             -11.6863
        21        2.0000           -0.4196381             -11.4189
        22        2.0000           -0.4096726             -11.1478
        23        2.0000           -0.4071202             -11.0783
        24        2.0000           -0.4065372             -11.0624
        25        2.0000           -0.3562746              -9.6947
        26        2.0000           -0.3465216              -9.4293 (HOMO)
        27                         -0.2820238              -7.6743 (LUMO)
        28                         -0.2123782              -5.7791
        29                         -0.1772026              -4.8219
        30                         -0.0763249              -2.0769
        31                          0.0421784               1.1477
        32                          0.1079570               2.9377
        33                          0.1328494               3.6150
        34                          0.1597443               4.3469
        35                          0.1621149               4.4114
        36                          0.1971305               5.3642
        37                          0.2126008               5.7852
       ...                                ...                  ...
        45                          0.7016284              19.0923
      -------------------------------------------------------------
                  HL-Gap            0.0644978 Eh            1.7551 eV

     #   Z          covCN         q      C6AA      α(0)
     1   6 C        2.888     0.108    25.607     8.296
     2   6 C        2.920    -0.061    29.523     8.910
     3   6 C        2.910    -0.034    28.843     8.806
     4   6 C        2.911    -0.014    28.358     8.732
     5   6 C        2.909    -0.032    28.806     8.801
     6   6 C        2.913    -0.071    29.767     8.947
     7   8 O        0.929    -0.583    25.664     6.794
     8   1 H        0.925     0.025     2.657     2.549
     9   1 H        0.926     0.049     2.336     2.390
    10   1 H        0.926     0.041     2.432     2.439
    11   7 N        2.765     0.439    14.739     5.702
    12   1 H        0.926     0.036     2.496     2.471
    13   8 O        0.929    -0.581    25.603     6.786
    14   7 N        1.784    -0.448    32.723     8.472
    15   1 H        0.860     0.125     1.583     1.971

Wiberg/Mayer (AO) data.
largest (>0.10) Wiberg bond orders for each atom

     #   Z sym  total        # sym  WBO       # sym  WBO       # sym  WBO
 ---------------------------------------------------------------------------
     1   6 C    3.979 --    14 N    1.623     2 C    1.144     6 C    1.135
     2   6 C    3.988 --     3 C    1.675     1 C    1.144     9 H    0.968
     3   6 C    3.990 --     2 C    1.675     4 C    1.207    10 H    0.965
     4   6 C    3.940 --     5 C    1.213    11 N    1.209     3 C    1.207
                            13 O    0.109     7 O    0.108
     5   6 C    3.990 --     6 C    1.667     4 C    1.213    12 H    0.965
     6   6 C    3.986 --     5 C    1.667     1 C    1.135     8 H    0.967
     7   8 O    1.652 --    11 N    1.253    13 O    0.195     4 C    0.108
     8   1 H    0.999 --     6 C    0.967
     9   1 H    0.997 --     2 C    0.968
    10   1 H    0.998 --     3 C    0.965
    11   7 N    3.813 --    13 O    1.255     7 O    1.253     4 C    1.209
    12   1 H    0.999 --     5 C    0.965
    13   8 O    1.655 --    11 N    1.255     7 O    0.195     4 C    0.109
    14   7 N    2.788 --     1 C    1.623    15 H    0.958
    15   1 H    0.984 --    14 N    0.958
 ---------------------------------------------------------------------------

molecular dipole:
                 x           y           z       tot (Debye)
 q only:        9.531       6.971      -0.045
   full:        9.218       6.644       0.074      28.881

 projected vibrational frequencies (cm⁻¹)
eigval :       -0.00    -0.00    -0.00     0.00     0.00     0.00
eigval :       84.80   107.72   212.04   238.07   353.22   373.16
eigval :      401.60   426.72   542.84   599.99   608.95   636.43
eigval :      685.43   747.06   768.00   819.78   841.12   847.86
eigval :      919.58   922.68   964.33  1097.32  1123.15  1158.46
eigval :     1181.55  1274.68  1336.87  1367.91  1390.27  1404.37
eigval :     1469.18  1550.43  1561.82  1621.29  3044.11  3074.37
eigval :     3080.08  3102.08  3307.91

   temp. (K)  partition function   enthalpy   heat capacity  entropy
                                   cal/mol     cal/K/mol   cal/K/mol   J/K/mol
 298.15  VIB   51.0                 3303.066     24.806     18.787
         ROT  0.561E+06              888.752      2.981     29.288
         INT  0.286E+08             4191.818     27.787     48.075
         TR   0.155E+28             1481.254      4.968     40.640
         TOT                        5673.0722    32.7548    88.7151   371.1841

       T/K    H(0)-H(T)+PV         H(T)/Eh          T*S/Eh         G(T)/Eh
   ------------------------------------------------------------------------
    298.15    0.904062E-02    0.112121E+00    0.421514E-01    0.699700E-01
   ------------------------------------------------------------------------

         :::::::::::::::::::::::::::::::::::::::::::::::::::::
         ::                  THERMODYNAMIC                  ::
         :::::::::::::::::::::::::::::::::::::::::::::::::::::
         :: total free energy         -29.514708587480 Eh   ::
         ::.................................................::
         :: total energy              -29.584678570566 Eh   ::
         :: zero point energy           0.103080783757 Eh   ::
         :: G(RRHO) w/o ZPVE           -0.033110800671 Eh   ::
         :: G(RRHO) contrib.            0.069969983086 Eh   ::
         :::::::::::::::::::::::::::::::::::::::::::::::::::::

           -------------------------------------------------
          | TOTAL ENERGY              -29.584678570566 Eh   |
          | TOTAL ENTHALPY            -29.472557170781 Eh   |
          | TOTAL FREE ENERGY         -29.514708587480 Eh   |
          | GRADIENT NORM               0.000430884361 Eh/α |
          | HOMO-LUMO GAP               1.755074130276 eV   |
           -------------------------------------------------

 * finished run on 2025/10/18 at 04:56:54.955
