   * xtb version 6.7.1 (edcfbbe) compiled by 'albert@albert-system' on 2024-07-22

   ID    Z sym.   atoms
    1    6 C      1, 2, 4, 6, 8, 10
    2    7 N      3
    3    1 H      5, 7, 9, 11
    4    8 O      12-14

          program call               : xtb xyz.xyz --alpb water --charge -1 --ohess
      * Solvation model:               ALPB
        Solvent                        water
        Solvent mass                       1.8000E+01 g/mol
          :  Hamiltonian                  GFN2-xTB          :
 * total energy  :   -30.2144688 Eh     change       -0.2524736E-09 Eh
 * total energy  :   -30.2305037 Eh     change       -0.1603488E-01 Eh
 * total energy  :   -30.2330237 Eh     change       -0.2520040E-02 Eh
 * total energy  :   -30.2333639 Eh     change       -0.3401597E-03 Eh
 * total energy  :   -30.2334457 Eh     change       -0.8179083E-04 Eh
 * total energy  :   -30.2334512 Eh     change       -0.5566808E-05 Eh
 * total energy  :   -30.2334495 Eh     change        0.1719914E-05 Eh
 * total energy  :   -30.2334547 Eh     change       -0.5157323E-05 Eh
 * total energy  :   -30.2334551 Eh     change       -0.4744276E-06 Eh
   *** GEOMETRY OPTIMIZATION CONVERGED AFTER 9 ITERATIONS ***

 final structure:
================
14
 xtb: 6.7.1 (edcfbbe)
C           -4.07902630841354       -1.94832472487633        1.93486057683916
C           -3.79201701139907       -2.42020623704995        0.69525434282090
N           -7.18407328341467       -3.86904685903095        2.61271316478248
C           -5.22811111703597       -2.37975856176442        2.69319440853606
H           -3.45135959250950       -1.21559304477396        2.42075783668637
C           -4.62019558392331       -3.37661335703756        0.07302986008515
H           -2.91746230470677       -2.06140410324375        0.17271488577307
C           -5.72249850264084       -3.82943292699622        0.72986834069729
H           -4.37943895252751       -3.74184348444249       -0.91153623093546
C           -6.05549310845111       -3.36289283357871        2.02039335797475
H           -6.38489091716367       -4.56118249113991        0.29138640497845
O           -5.45560159804002       -1.91779295191902        3.83477341423497
O           -7.87116157847746       -4.71943277108041        1.99717097976121
O           -7.54346814129654       -3.50695365306631        3.74835165776560

          :  Hamiltonian                  GFN2-xTB          :
         :: gradient norm              0.000299140806 Eh/a0 ::
         :: HOMO-LUMO gap              1.909558226533 eV    ::
         :: SCC energy               -30.564954934271 Eh    ::
         :: -> dispersion             -0.012894192322 Eh    ::
         :: -> Gsolv                  -0.100755865705 Eh    ::
         :: repulsion energy           0.331499797379 Eh    ::

    * Orbital Energies and Occupations

         #    Occupation            Energy/Eh            Energy/eV
      -------------------------------------------------------------
         1        2.0000           -0.7321757             -19.9235
       ...           ...                  ...                  ...
        14        2.0000           -0.5051529             -13.7459
        15        2.0000           -0.4990150             -13.5789
        16        2.0000           -0.4925131             -13.4020
        17        2.0000           -0.4770871             -12.9822
        18        2.0000           -0.4516408             -12.2898
        19        2.0000           -0.4473967             -12.1743
        20        2.0000           -0.4405712             -11.9886
        21        2.0000           -0.4340619             -11.8114
        22        2.0000           -0.4192591             -11.4086
        23        2.0000           -0.4158481             -11.3158
        24        2.0000           -0.4108108             -11.1787
        25        2.0000           -0.3654662              -9.9448
        26        2.0000           -0.3630476              -9.8790 (HOMO)
        27                         -0.2928728              -7.9695 (LUMO)
        28                         -0.2066811              -5.6241
        29                         -0.1975474              -5.3755
        30                         -0.0833852              -2.2690
        31                          0.0398294               1.0838
        32                          0.1261275               3.4321
        33                          0.1397805               3.8036
        34                          0.1672032               4.5498
        35                          0.1809039               4.9226
        36                          0.2063191               5.6142
        37                          0.2722814               7.4092
       ...                                ...                  ...
        44                          0.7018289              19.0977
      -------------------------------------------------------------
                  HL-Gap            0.0701748 Eh            1.9096 eV

     #   Z          covCN         q      C6AA      α(0)
     1   6 C        2.913    -0.079    29.967     8.977
     2   6 C        2.912    -0.030    28.748     8.792
     3   7 N        2.765     0.480    14.251     5.607
     4   6 C        2.828     0.205    23.660     7.971
     5   1 H        0.926     0.041     2.434     2.440
     6   6 C        2.914    -0.055    29.368     8.887
     7   1 H        0.926     0.060     2.196     2.317
     8   6 C        2.917    -0.034    28.853     8.808
     9   1 H        0.926     0.058     2.228     2.334
    10   6 C        2.903    -0.048    29.196     8.860
    11   1 H        0.926     0.054     2.267     2.355
    12   8 O        0.857    -0.577    25.562     6.779
    13   8 O        0.930    -0.546    24.777     6.676
    14   8 O        0.928    -0.529    24.400     6.625

Wiberg/Mayer (AO) data.
largest (>0.10) Wiberg bond orders for each atom

     #   Z sym  total        # sym  WBO       # sym  WBO       # sym  WBO
 ---------------------------------------------------------------------------
     1   6 C    3.987 --     2 C    1.622     4 C    1.157     5 H    0.969
                             8 C    0.114
     2   6 C    3.989 --     1 C    1.622     6 C    1.271     7 H    0.967
     3   7 N    3.881 --    14 O    1.327    13 O    1.291    10 C    1.159
     4   6 C    3.953 --    12 O    1.531     1 C    1.157    10 C    1.135
     5   1 H    0.998 --     1 C    0.969
     6   6 C    3.987 --     8 C    1.577     2 C    1.271     9 H    0.969
     7   1 H    0.996 --     2 C    0.967
     8   6 C    3.987 --     6 C    1.577    10 C    1.267    11 H    0.962
                             1 C    0.114
     9   1 H    0.996 --     6 C    0.969
    10   6 C    3.928 --     8 C    1.267     3 N    1.159     4 C    1.135
                            14 O    0.102
    11   1 H    0.997 --     8 C    0.962
    12   8 O    1.869 --     4 C    1.531
    13   8 O    1.743 --     3 N    1.291    14 O    0.234
    14   8 O    1.788 --     3 N    1.327    13 O    0.234    10 C    0.102
 ---------------------------------------------------------------------------

molecular dipole:
                 x           y           z       tot (Debye)
 q only:       13.559       6.161      -7.004
   full:       13.526       6.140      -6.998      41.736

 projected vibrational frequencies (cm⁻¹)
eigval :       -0.00    -0.00     0.00     0.00     0.00     0.00
eigval :       46.48    96.40   212.69   231.64   361.99   380.13
eigval :      425.68   479.67   538.69   579.30   640.71   653.76
eigval :      727.57   771.26   793.32   846.18   856.82   903.11
eigval :      918.83  1060.72  1091.10  1158.23  1175.56  1211.08
eigval :     1279.21  1345.06  1353.47  1423.64  1433.94  1522.26
eigval :     1548.60  1619.00  3069.90  3084.17  3085.25  3109.00

   temp. (K)  partition function   enthalpy   heat capacity  entropy
                                   cal/mol     cal/K/mol   cal/K/mol   J/K/mol
 298.15  VIB   84.4                 3230.118     23.080     18.835
         ROT  0.531E+06              888.752      2.981     29.179
         INT  0.448E+08             4118.871     26.061     48.015
         TR   0.157E+28             1481.254      4.968     40.662
         TOT                        5600.1247    31.0293    88.6765   371.0224

       T/K    H(0)-H(T)+PV         H(T)/Eh          T*S/Eh         G(T)/Eh
   ------------------------------------------------------------------------
    298.15    0.892437E-02    0.100130E+00    0.421331E-01    0.579965E-01
   ------------------------------------------------------------------------

         :::::::::::::::::::::::::::::::::::::::::::::::::::::
         ::                  THERMODYNAMIC                  ::
         :::::::::::::::::::::::::::::::::::::::::::::::::::::
         :: total free energy         -30.175458687143 Eh   ::
         ::.................................................::
         :: total energy              -30.233455137230 Eh   ::
         :: zero point energy           0.091205138731 Eh   ::
         :: G(RRHO) w/o ZPVE           -0.033208688643 Eh   ::
         :: G(RRHO) contrib.            0.057996450087 Eh   ::
         :::::::::::::::::::::::::::::::::::::::::::::::::::::

           -------------------------------------------------
          | TOTAL ENERGY              -30.233455137230 Eh   |
          | TOTAL ENTHALPY            -30.133325631805 Eh   |
          | TOTAL FREE ENERGY         -30.175458687143 Eh   |
          | GRADIENT NORM               0.000298916132 Eh/α |
          | HOMO-LUMO GAP               1.909554859141 eV   |
           -------------------------------------------------

 * finished run on 2025/10/18 at 06:21:34.388
