   * xtb version 6.7.1 (edcfbbe) compiled by 'albert@albert-system' on 2024-07-22

   ID    Z sym.   atoms
    1    6 C      1-3
    2    8 O      4
    3    9 F      5-10
    4    1 H      11

          program call               : xtb xyz.xyz --alpb water --charge -1 --ohess
      * Solvation model:               ALPB
        Solvent                        water
        Solvent mass                       1.8000E+01 g/mol
          :  Hamiltonian                  GFN2-xTB          :
 * total energy  :   -39.7178604 Eh     change       -0.8510881E-10 Eh
 * total energy  :   -39.7220777 Eh     change       -0.4217333E-02 Eh
 * total energy  :   -39.7228866 Eh     change       -0.8088901E-03 Eh
 * total energy  :   -39.7229131 Eh     change       -0.2650300E-04 Eh
 * total energy  :   -39.7229221 Eh     change       -0.8988915E-05 Eh
 * total energy  :   -39.7229236 Eh     change       -0.1517495E-05 Eh
   *** GEOMETRY OPTIMIZATION CONVERGED AFTER 6 ITERATIONS ***

 final structure:
================
11
 xtb: 6.7.1 (edcfbbe)
C           -3.80244514074168       -3.33730049031650        0.36467542054823
C           -5.26719830770074       -3.64390640199721        0.80517634784623
C           -5.54804326751248       -5.11753336360049        0.37720899106173
O           -5.47153336398854       -3.43450686168443        2.07479166347225
F           -2.87963205446330       -4.09712593350350        0.97384039060714
F           -3.57728206474449       -3.48463174539796       -0.96247356652753
F           -3.47642836075356       -2.06364640682022        0.63573164913730
F           -4.75839623963278       -6.01991370023472        0.97913661878228
F           -5.41630863648185       -5.34647447645401       -0.95093173788274
F           -6.80963601382324       -5.47035649039386        0.66971774102706
H           -5.89628555015732       -3.03200212959708        0.09533048192805

          :  Hamiltonian                  GFN2-xTB          :
         :: gradient norm              0.000434238103 Eh/a0 ::
         :: HOMO-LUMO gap              9.557970726850 eV    ::
         :: SCC energy               -39.835418130511 Eh    ::
         :: -> dispersion             -0.007940620632 Eh    ::
         :: -> Gsolv                  -0.087665916257 Eh    ::
         :: repulsion energy           0.112494525780 Eh    ::

    * Orbital Energies and Occupations

         #    Occupation            Energy/Eh            Energy/eV
      -------------------------------------------------------------
         1        2.0000           -0.8961791             -24.3863
       ...           ...                  ...                  ...
        19        2.0000           -0.5634537             -15.3324
        20        2.0000           -0.5618218             -15.2880
        21        2.0000           -0.5523732             -15.0308
        22        2.0000           -0.5515034             -15.0072
        23        2.0000           -0.5506864             -14.9849
        24        2.0000           -0.5506310             -14.9834
        25        2.0000           -0.5490856             -14.9414
        26        2.0000           -0.5488101             -14.9339
        27        2.0000           -0.5291828             -14.3998
        28        2.0000           -0.5157892             -14.0353
        29        2.0000           -0.4962038             -13.5024
        30        2.0000           -0.3741013             -10.1798
        31        2.0000           -0.3702141             -10.0740 (HOMO)
        32                         -0.0189651              -0.5161 (LUMO)
        33                         -0.0136558              -0.3716
        34                          0.0040113               0.1092
        35                          0.0281477               0.7659
        36                          0.0384433               1.0461
        37                          0.1019889               2.7753
        38                          0.1396034               3.7988
        39                          0.1426644               3.8821
        40                          0.1439187               3.9162
        41                          0.3520301               9.5792
      -------------------------------------------------------------
                  HL-Gap            0.3512490 Eh            9.5580 eV

     #   Z          covCN         q      C6AA      α(0)
     1   6 C        3.327     0.462    17.721     6.685
     2   6 C        3.718     0.159    18.146     6.085
     3   6 C        3.327     0.462    17.721     6.686
     4   8 O        0.856    -0.755    30.258     7.375
     5   9 F        0.790    -0.215    11.396     3.988
     6   9 F        0.790    -0.231    11.559     4.016
     7   9 F        0.791    -0.212    11.364     3.982
     8   9 F        0.790    -0.216    11.398     3.988
     9   9 F        0.790    -0.231    11.559     4.016
    10   9 F        0.791    -0.212    11.362     3.982
    11   1 H        0.918    -0.011     3.260     2.824

Wiberg/Mayer (AO) data.
largest (>0.10) Wiberg bond orders for each atom

     #   Z sym  total        # sym  WBO       # sym  WBO       # sym  WBO
 ---------------------------------------------------------------------------
     1   6 C    3.785 --     7 F    0.950     5 F    0.949     6 F    0.928
                             2 C    0.868
     2   6 C    3.975 --     4 O    1.209    11 H    0.912     1 C    0.868
                             3 C    0.868
     3   6 C    3.785 --    10 F    0.950     8 F    0.949     9 F    0.928
                             2 C    0.868
     4   8 O    1.437 --     2 C    1.209
     5   9 F    1.066 --     1 C    0.949
     6   9 F    1.046 --     1 C    0.928
     7   9 F    1.066 --     1 C    0.950
     8   9 F    1.066 --     3 C    0.949
     9   9 F    1.046 --     3 C    0.928
    10   9 F    1.066 --     3 C    0.950
    11   1 H    1.000 --     2 C    0.912
 ---------------------------------------------------------------------------

molecular dipole:
                 x           y           z       tot (Debye)
 q only:        9.341       7.479      -2.557
   full:        9.354       7.464      -2.823      31.252

 projected vibrational frequencies (cm⁻¹)
eigval :       -0.00    -0.00     0.00     0.00     0.00     0.00
eigval :       14.15    70.97   128.94   194.76   198.77   247.72
eigval :      297.70   321.37   421.66   461.02   465.15   478.70
eigval :      548.34   608.63   660.16   771.37   800.69   992.40
eigval :     1008.63  1019.68  1067.20  1136.11  1158.20  1212.75
eigval :     1222.37  1290.76  2518.50

   temp. (K)  partition function   enthalpy   heat capacity  entropy
                                   cal/mol     cal/K/mol   cal/K/mol   J/K/mol
 298.15  VIB  0.149E+04             4216.773     25.678     25.961
         ROT  0.591E+06              888.752      2.981     29.390
         INT  0.880E+09             5105.526     28.659     55.352
         TR   0.209E+28             1481.254      4.968     41.228
         TOT                        6586.7795    33.6272    96.5801   404.0913

       T/K    H(0)-H(T)+PV         H(T)/Eh          T*S/Eh         G(T)/Eh
   ------------------------------------------------------------------------
    298.15    0.104967E-01    0.545033E-01    0.458883E-01    0.861497E-02
   ------------------------------------------------------------------------

         :::::::::::::::::::::::::::::::::::::::::::::::::::::
         ::                  THERMODYNAMIC                  ::
         :::::::::::::::::::::::::::::::::::::::::::::::::::::
         :: total free energy         -39.714308635812 Eh   ::
         ::.................................................::
         :: total energy              -39.722923605177 Eh   ::
         :: zero point energy           0.044006610931 Eh   ::
         :: G(RRHO) w/o ZPVE           -0.035391641566 Eh   ::
         :: G(RRHO) contrib.            0.008614969365 Eh   ::
         :::::::::::::::::::::::::::::::::::::::::::::::::::::

           -------------------------------------------------
          | TOTAL ENERGY              -39.722923605177 Eh   |
          | TOTAL ENTHALPY            -39.668420293000 Eh   |
          | TOTAL FREE ENERGY         -39.714308635812 Eh   |
          | GRADIENT NORM               0.000434241549 Eh/α |
          | HOMO-LUMO GAP               9.557970694451 eV   |
           -------------------------------------------------

 * finished run on 2025/10/18 at 07:33:50.670
