   * xtb version 6.7.1 (edcfbbe) compiled by 'albert@albert-system' on 2024-07-22

   ID    Z sym.   atoms
    1    6 C      1-6
    2    8 O      7, 13, 14
    3    1 H      8-10, 12
    4    7 N      11

          program call               : xtb xyz.xyz --alpb water --charge -1 --ohess
      * Solvation model:               ALPB
        Solvent                        water
        Solvent mass                       1.8000E+01 g/mol
          :  Hamiltonian                  GFN2-xTB          :
 * total energy  :   -30.2008547 Eh     change       -0.1754188E-09 Eh
 * total energy  :   -30.2152832 Eh     change       -0.1442851E-01 Eh
 * total energy  :   -30.2197481 Eh     change       -0.4464861E-02 Eh
 * total energy  :   -30.2202326 Eh     change       -0.4845879E-03 Eh
 * total energy  :   -30.2203875 Eh     change       -0.1548294E-03 Eh
 * total energy  :   -30.2203697 Eh     change        0.1775030E-04 Eh
 * total energy  :   -30.2204165 Eh     change       -0.4678939E-04 Eh
 * total energy  :   -30.2204183 Eh     change       -0.1796919E-05 Eh
   *** GEOMETRY OPTIMIZATION CONVERGED AFTER 8 ITERATIONS ***

 final structure:
================
14
 xtb: 6.7.1 (edcfbbe)
C           -2.08658837607129       -2.83908410749688        1.54804559521314
C           -2.51432631941439       -2.18179984159994        0.41497212077552
C           -3.70412682722044       -2.51898556829605       -0.20199397537540
C           -4.46050505350604       -3.55323976841898        0.36451508057520
C           -4.05072651164962       -4.22866617630060        1.50393316191382
C           -2.82978847402439       -3.89906780781122        2.15778547483108
O           -2.42883238725409       -4.49853709925450        3.20233481240079
H           -1.15350030691919       -2.56551268081039        2.02077838315091
H           -1.90872308528108       -1.38880104121558        0.00161415105629
H           -4.06003309382483       -2.02022445047659       -1.08749713855745
N           -5.67457841485812       -3.91457234976396       -0.24642712219854
H           -4.66306139044579       -5.02064448666558        1.90931937321660
O           -6.04108163695735       -3.31790844781426       -1.25939995700838
O           -6.35381712257340       -4.81978317407548        0.23800804000641

          :  Hamiltonian                  GFN2-xTB          :
         :: gradient norm              0.000352367839 Eh/a0 ::
         :: HOMO-LUMO gap              0.748760403836 eV    ::
         :: SCC energy               -30.551401819741 Eh    ::
         :: -> dispersion             -0.012734580235 Eh    ::
         :: -> Gsolv                  -0.085777718878 Eh    ::
         :: repulsion energy           0.330983508323 Eh    ::

    * Orbital Energies and Occupations

         #    Occupation            Energy/Eh            Energy/eV
      -------------------------------------------------------------
         1        2.0000           -0.7614823             -20.7210
       ...           ...                  ...                  ...
        14        2.0000           -0.4981461             -13.5552
        15        2.0000           -0.4868773             -13.2486
        16        2.0000           -0.4839250             -13.1683
        17        2.0000           -0.4705743             -12.8050
        18        2.0000           -0.4678845             -12.7318
        19        2.0000           -0.4432500             -12.0614
        20        2.0000           -0.4432208             -12.0607
        21        2.0000           -0.4426767             -12.0458
        22        2.0000           -0.4316959             -11.7470
        23        2.0000           -0.4285472             -11.6614
        24        2.0000           -0.4085948             -11.1184
        25        2.0000           -0.3484797              -9.4826
        26        2.0000           -0.3416435              -9.2966 (HOMO)
        27        0.0000           -0.3141270              -8.5478 (LUMO)
        28                         -0.2083892              -5.6706
        29                         -0.1870304              -5.0894
        30                         -0.0765474              -2.0830
        31                          0.0219654               0.5977
        32                          0.1299002               3.5348
        33                          0.1510903               4.1114
        34                          0.1852743               5.0416
        35                          0.1944458               5.2911
        36                          0.2284586               6.2167
        37                          0.2506795               6.8213
       ...                                ...                  ...
        44                          0.6788884              18.4735
      -------------------------------------------------------------
                  HL-Gap            0.0275165 Eh            0.7488 eV

     #   Z          covCN         q      C6AA      α(0)
     1   6 C        2.917    -0.074    29.856     8.960
     2   6 C        2.914    -0.038    28.950     8.823
     3   6 C        2.917    -0.059    29.463     8.901
     4   6 C        2.909    -0.003    28.095     8.691
     5   6 C        2.917    -0.083    30.088     8.995
     6   6 C        2.830     0.185    24.037     8.034
     7   8 O        0.857    -0.673    27.984     7.092
     8   1 H        0.926     0.031     2.578     2.511
     9   1 H        0.926     0.049     2.329     2.387
    10   1 H        0.926     0.056     2.247     2.344
    11   7 N        2.765     0.529    13.710     5.499
    12   1 H        0.926     0.029     2.598     2.521
    13   8 O        0.929    -0.471    23.106     6.447
    14   8 O        0.929    -0.477    23.254     6.467

Wiberg/Mayer (AO) data.
largest (>0.10) Wiberg bond orders for each atom

     #   Z sym  total        # sym  WBO       # sym  WBO       # sym  WBO
 ---------------------------------------------------------------------------
     1   6 C    3.989 --     2 C    1.475     6 C    1.210     8 H    0.972
                             7 O    0.100
     2   6 C    3.991 --     1 C    1.475     3 C    1.434     9 H    0.967
     3   6 C    3.984 --     2 C    1.434     4 C    1.292    10 H    0.966
     4   6 C    3.941 --     5 C    1.378     3 C    1.292    11 N    1.040
     5   6 C    3.984 --     4 C    1.378     6 C    1.239    12 H    0.967
                             7 O    0.110
     6   6 C    3.967 --     7 O    1.425     5 C    1.239     1 C    1.210
     7   8 O    1.734 --     6 C    1.425     5 C    0.110     1 C    0.100
     8   1 H    0.999 --     1 C    0.972
     9   1 H    0.997 --     2 C    0.967
    10   1 H    0.997 --     3 C    0.966
    11   7 N    3.896 --    14 O    1.390    13 O    1.387     4 C    1.040
    12   1 H    0.999 --     5 C    0.967
    13   8 O    1.845 --    11 N    1.387    14 O    0.293
    14   8 O    1.849 --    11 N    1.390    13 O    0.293
 ---------------------------------------------------------------------------

molecular dipole:
                 x           y           z       tot (Debye)
 q only:        8.153       8.500      -3.016
   full:        8.072       8.514      -3.103      30.845

 projected vibrational frequencies (cm⁻¹)
eigval :       -0.00    -0.00    -0.00     0.00     0.00     0.00
eigval :       49.59   142.98   187.61   211.83   381.60   382.49
eigval :      428.05   492.49   498.24   557.26   623.22   658.34
eigval :      722.63   774.47   786.19   800.87   866.16   909.67
eigval :      955.48   974.89  1109.01  1120.21  1169.28  1234.24
eigval :     1287.80  1294.21  1355.05  1436.87  1503.40  1508.35
eigval :     1517.19  1578.66  3063.36  3077.03  3088.57  3118.90

   temp. (K)  partition function   enthalpy   heat capacity  entropy
                                   cal/mol     cal/K/mol   cal/K/mol   J/K/mol
 298.15  VIB   67.6                 3235.082     23.425     18.570
         ROT  0.592E+06              888.752      2.981     29.395
         INT  0.401E+08             4123.834     26.406     47.965
         TR   0.157E+28             1481.254      4.968     40.662
         TOT                        5605.0882    31.3741    88.6271   370.8159

       T/K    H(0)-H(T)+PV         H(T)/Eh          T*S/Eh         G(T)/Eh
   ------------------------------------------------------------------------
    298.15    0.893228E-02    0.997542E-01    0.421096E-01    0.576446E-01
   ------------------------------------------------------------------------

         :::::::::::::::::::::::::::::::::::::::::::::::::::::
         ::                  THERMODYNAMIC                  ::
         :::::::::::::::::::::::::::::::::::::::::::::::::::::
         :: total free energy         -30.162773713727 Eh   ::
         ::.................................................::
         :: total energy              -30.220418311302 Eh   ::
         :: zero point energy           0.090821926226 Eh   ::
         :: G(RRHO) w/o ZPVE           -0.033177328651 Eh   ::
         :: G(RRHO) contrib.            0.057644597575 Eh   ::
         :::::::::::::::::::::::::::::::::::::::::::::::::::::

           -------------------------------------------------
          | TOTAL ENERGY              -30.220418311302 Eh   |
          | TOTAL ENTHALPY            -30.120664108411 Eh   |
          | TOTAL FREE ENERGY         -30.162773713727 Eh   |
          | GRADIENT NORM               0.000352702161 Eh/α |
          | HOMO-LUMO GAP               0.748761484532 eV   |
           -------------------------------------------------

 * finished run on 2025/10/18 at 04:37:22.159
