   * xtb version 6.7.1 (edcfbbe) compiled by 'albert@albert-system' on 2024-07-22

   ID    Z sym.   atoms
    1    6 C      1, 2, 5, 7, 9, 11, 13, 14, 17, 19, 21, 23
    2    7 N      3
    3    1 H      4, 6, 8, 10, 12, 15, 16, 18, 20, 22

          program call               : xtb xyz.xyz --charge -1 --alpb water --ohess
      * Solvation model:               ALPB
        Solvent                        water
        Solvent mass                       1.8000E+01 g/mol
          :  Hamiltonian                  GFN2-xTB          :
 * total energy  :   -33.9631001 Eh     change       -0.1726832E-09 Eh
 * total energy  :   -33.9665622 Eh     change       -0.3462056E-02 Eh
 * total energy  :   -33.9673719 Eh     change       -0.8097200E-03 Eh
 * total energy  :   -33.9677385 Eh     change       -0.3665843E-03 Eh
 * total energy  :   -33.9680946 Eh     change       -0.3561147E-03 Eh
 * total energy  :   -33.9684556 Eh     change       -0.3609670E-03 Eh
 * total energy  :   -33.9688326 Eh     change       -0.3770081E-03 Eh
 * total energy  :   -33.9692233 Eh     change       -0.3906999E-03 Eh
 * total energy  :   -33.9696048 Eh     change       -0.3815661E-03 Eh
 * total energy  :   -33.9699551 Eh     change       -0.3502712E-03 Eh
 * total energy  :   -33.9702627 Eh     change       -0.3076231E-03 Eh
 * total energy  :   -33.9706256 Eh     change       -0.3628279E-03 Eh
 * total energy  :   -33.9708095 Eh     change       -0.1839402E-03 Eh
 * total energy  :   -33.9709143 Eh     change       -0.1048081E-03 Eh
 * total energy  :   -33.9709388 Eh     change       -0.2446033E-04 Eh
 * total energy  :   -33.9709461 Eh     change       -0.7311000E-05 Eh
 * total energy  :   -33.9709505 Eh     change       -0.4393308E-05 Eh
   *** GEOMETRY OPTIMIZATION CONVERGED AFTER 17 ITERATIONS ***

 final structure:
================
23
 xtb: 6.7.1 (edcfbbe)
C           -7.45451113403808       -3.53785207521873       -3.12014063427089
C           -8.24060355786416       -3.43686842677227       -4.26093360860901
N           -5.76813060688156       -0.31366080813756       -3.02561791728977
H           -6.05376585234562       -2.57422378257977       -1.82094613254333
C           -8.19998311801966       -2.25997376684605       -4.99493727696796
H           -8.86465380137926       -4.26051566506158       -4.57697066765467
C           -7.41932450815224       -1.20160119420755       -4.59401737863206
H           -8.78980851952154       -2.17027964440851       -5.90103840803625
C           -6.62812470965275       -1.26704801073571       -3.41991462477202
H           -7.37999706415952       -0.29655728289186       -5.19155274335299
C           -6.66541224569627       -2.49052775704098       -2.70999158870603
H           -7.46614047141791       -4.45367523903330       -2.54130629402273
C           -5.95096393716066        0.99888040197279       -3.23881592444299
C           -7.21541999381956        1.63786501191724       -3.29282719899788
H           -4.05715711060225        3.82989087886068       -3.41721386654268
H           -3.84271360426210        1.38858005548068       -3.21805389892251
C           -7.32692304621613        3.00405833045591       -3.39767197353301
H           -8.10662798065606        1.02259039274866       -3.22547200761796
C           -6.19943585023563        3.81159602788262       -3.45424087201565
H           -8.31307463175164        3.45407715655593       -3.43319851651400
C           -4.94768366558542        3.21351715333977       -3.38346601330359
H           -6.29521822581900        4.88431916627084       -3.54411134869695
C           -4.82045936476135        1.84974007744839       -3.27453410455671

          :  Hamiltonian                  GFN2-xTB          :
         :: gradient norm              0.000899868788 Eh/a0 ::
         :: HOMO-LUMO gap              2.813383764323 eV    ::
         :: SCC energy               -34.595163813719 Eh    ::
         :: -> dispersion             -0.023920316075 Eh    ::
         :: -> Gsolv                  -0.074260991816 Eh    ::
         :: repulsion energy           0.624213336163 Eh    ::

    * Orbital Energies and Occupations

         #    Occupation            Energy/Eh            Energy/eV
      -------------------------------------------------------------
         1        2.0000           -0.6080410             -16.5456
       ...           ...                  ...                  ...
        20        2.0000           -0.4491158             -12.2211
        21        2.0000           -0.4407299             -11.9929
        22        2.0000           -0.4356074             -11.8535
        23        2.0000           -0.4144518             -11.2778
        24        2.0000           -0.4026448             -10.9565
        25        2.0000           -0.4011748             -10.9165
        26        2.0000           -0.4006710             -10.9028
        27        2.0000           -0.3821979             -10.4001
        28        2.0000           -0.3726417             -10.1401
        29        2.0000           -0.3719180             -10.1204
        30        2.0000           -0.3712112             -10.1012
        31        2.0000           -0.3107761              -8.4566
        32        2.0000           -0.2919154              -7.9434 (HOMO)
        33                         -0.1885254              -5.1300 (LUMO)
        34                         -0.1868767              -5.0852
        35                         -0.1866502              -5.0790
        36                         -0.1516113              -4.1256
        37                         -0.0609073              -1.6574
        38                         -0.0413643              -1.1256
        39                          0.1315485               3.5796
        40                          0.1425067               3.8778
        41                          0.1426624               3.8820
        42                          0.1584887               4.3127
        43                          0.1793664               4.8808
       ...                                ...                  ...
        62                          0.7273294              19.7916
      -------------------------------------------------------------
                  HL-Gap            0.1033900 Eh            2.8134 eV

     #   Z          covCN         q      C6AA      α(0)
     1   6 C        2.916    -0.047    29.161     8.855
     2   6 C        2.917    -0.075    29.867     8.962
     3   7 N        1.844    -0.418    31.865     8.366
     4   1 H        0.925    -0.007     3.188     2.792
     5   6 C        2.915    -0.047    29.161     8.855
     6   1 H        0.926    -0.003     3.108     2.757
     7   6 C        2.920    -0.076    29.909     8.968
     8   1 H        0.925    -0.008     3.207     2.801
     9   6 C        2.914     0.078    26.255     8.402
    10   1 H        0.925    -0.028     3.598     2.966
    11   6 C        2.926    -0.076    29.903     8.968
    12   1 H        0.925     0.001     3.048     2.730
    13   6 C        2.914     0.078    26.258     8.403
    14   6 C        2.920    -0.077    29.925     8.971
    15   1 H        0.925     0.000     3.056     2.734
    16   1 H        0.925    -0.008     3.196     2.795
    17   6 C        2.915    -0.047    29.164     8.856
    18   1 H        0.925    -0.029     3.606     2.970
    19   6 C        2.917    -0.075    29.878     8.963
    20   1 H        0.925    -0.009     3.214     2.804
    21   6 C        2.916    -0.047    29.163     8.855
    22   1 H        0.926    -0.003     3.119     2.762
    23   6 C        2.926    -0.077    29.914     8.969

Wiberg/Mayer (AO) data.
largest (>0.10) Wiberg bond orders for each atom

     #   Z sym  total        # sym  WBO       # sym  WBO       # sym  WBO
 ---------------------------------------------------------------------------
     1   6 C    3.990 --    11 C    1.500     2 C    1.397    12 H    0.971
     2   6 C    3.967 --     5 C    1.402     1 C    1.397     6 H    0.973
     3   7 N    3.039 --    13 C    1.306     9 C    1.302
     4   1 H    1.000 --    11 C    0.972
     5   6 C    3.989 --     7 C    1.494     2 C    1.402     8 H    0.971
     6   1 H    1.000 --     2 C    0.973
     7   6 C    3.982 --     5 C    1.494     9 C    1.263    10 H    0.969
     8   1 H    1.000 --     5 C    0.971
     9   6 C    3.980 --     3 N    1.302    11 C    1.270     7 C    1.263
    10   1 H    0.999 --     7 C    0.969
    11   6 C    3.976 --     1 C    1.500     9 C    1.270     4 H    0.972
    12   1 H    0.999 --     1 C    0.971
    13   6 C    3.980 --     3 N    1.306    23 C    1.268    14 C    1.261
    14   6 C    3.982 --    17 C    1.495    13 C    1.261    18 H    0.969
    15   1 H    0.999 --    21 C    0.971
    16   1 H    1.000 --    23 C    0.972
    17   6 C    3.989 --    14 C    1.495    19 C    1.401    20 H    0.971
    18   1 H    0.999 --    14 C    0.969
    19   6 C    3.967 --    17 C    1.401    21 C    1.396    22 H    0.973
    20   1 H    1.000 --    17 C    0.971
    21   6 C    3.990 --    23 C    1.501    19 C    1.396    15 H    0.971
    22   1 H    1.000 --    19 C    0.973
    23   6 C    3.976 --    21 C    1.501    13 C    1.268    16 H    0.972
 ---------------------------------------------------------------------------

molecular dipole:
                 x           y           z       tot (Debye)
 q only:       12.325       0.079       6.544
   full:       12.039       0.178       6.375      34.628

 projected vibrational frequencies (cm⁻¹)
eigval :       -0.00    -0.00    -0.00    -0.00     0.00     0.00
eigval :       61.73    67.08    86.69   203.22   207.86   310.25
eigval :      356.79   375.97   382.24   456.61   480.78   531.59
eigval :      568.26   585.34   604.61   647.96   656.51   735.75
eigval :      739.37   801.31   824.10   834.75   848.70   859.59
eigval :      890.19   907.90   908.76   909.32   919.10   966.03
eigval :      973.37  1077.06  1079.05  1112.18  1119.04  1175.99
eigval :     1176.43  1194.88  1197.90  1270.83  1271.25  1289.41
eigval :     1331.01  1337.60  1398.25  1443.46  1452.12  1480.81
eigval :     1498.10  1537.75  1539.93  1591.40  1618.77  2993.69
eigval :     2996.34  3011.62  3013.21  3015.50  3016.57  3037.16
eigval :     3039.28  3057.05  3059.40

   temp. (K)  partition function   enthalpy   heat capacity  entropy
                                   cal/mol     cal/K/mol   cal/K/mol   J/K/mol
 298.15  VIB   541.                 4724.685     35.225     27.729
         ROT  0.669E+06              888.752      2.981     29.636
         INT  0.362E+09             5613.438     38.206     57.364
         TR   0.211E+28             1481.254      4.968     41.250
         TOT                        7094.6918    43.1737    98.6138   412.6000

       T/K    H(0)-H(T)+PV         H(T)/Eh          T*S/Eh         G(T)/Eh
   ------------------------------------------------------------------------
    298.15    0.113061E-01    0.189310E+00    0.468546E-01    0.142456E+00
   ------------------------------------------------------------------------

         :::::::::::::::::::::::::::::::::::::::::::::::::::::
         ::                  THERMODYNAMIC                  ::
         :::::::::::::::::::::::::::::::::::::::::::::::::::::
         :: total free energy         -33.828494886460 Eh   ::
         ::.................................................::
         :: total energy              -33.970950479948 Eh   ::
         :: zero point energy           0.178004067280 Eh   ::
         :: G(RRHO) w/o ZPVE           -0.035548473792 Eh   ::
         :: G(RRHO) contrib.            0.142455593488 Eh   ::
         :::::::::::::::::::::::::::::::::::::::::::::::::::::

           -------------------------------------------------
          | TOTAL ENERGY              -33.970950479948 Eh   |
          | TOTAL ENTHALPY            -33.781640301661 Eh   |
          | TOTAL FREE ENERGY         -33.828494886460 Eh   |
          | GRADIENT NORM               0.000899876324 Eh/α |
          | HOMO-LUMO GAP               2.813383916268 eV   |
           -------------------------------------------------

 * finished run on 2025/10/17 at 22:24:32.376
