   * xtb version 6.7.1 (edcfbbe) compiled by 'albert@albert-system' on 2024-07-22

   ID    Z sym.   atoms
    1   35 Br     1
    2    8 O      2
    3    1 H      3, 4

          program call               : xtb tb_lite_results_original_gp104_b0_rot0_complex.xyz --ohess --chrg -1 --alpb water
      * Solvation model:               ALPB
        Solvent                        water
        Solvent mass                       1.8000E+01 g/mol
          :  Hamiltonian                  GFN2-xTB          :
 * total energy  :    -9.5266900 Eh     change       -0.1352873E-10 Eh
 * total energy  :    -9.5273027 Eh     change       -0.6127011E-03 Eh
 * total energy  :    -9.5289639 Eh     change       -0.1661288E-02 Eh
 * total energy  :    -9.5290023 Eh     change       -0.3835871E-04 Eh
 * total energy  :    -9.5290327 Eh     change       -0.3044501E-04 Eh
 * total energy  :    -9.5290407 Eh     change       -0.7984111E-05 Eh
 * total energy  :    -9.5290444 Eh     change       -0.3675643E-05 Eh
   *** GEOMETRY OPTIMIZATION CONVERGED AFTER 7 ITERATIONS ***

 final structure:
================
4
 xtb: 6.7.1 (edcfbbe)
Br           0.01175759400532       -0.13453225125279        0.29143699850549
O            0.01322525087319        1.60805694801298       -2.90228214322892
H           -0.05057868695220        1.04927329416639       -2.11842041050543
H            0.46904393391298        2.40927320722525       -2.62298499770370

          :  Hamiltonian                  GFN2-xTB          :
         :: gradient norm              0.000263703274 Eh/a0 ::
         :: HOMO-LUMO gap             11.869522364710 eV    ::
         :: SCC energy                -9.561949676746 Eh    ::
         :: -> dispersion             -0.000785971773 Eh    ::
         :: -> Gsolv                  -0.115530539448 Eh    ::
         :: repulsion energy           0.032905269886 Eh    ::

    * Orbital Energies and Occupations

         #    Occupation            Energy/Eh            Energy/eV
      -------------------------------------------------------------
         1        2.0000           -0.7629945             -20.7621
         2        2.0000           -0.6642128             -18.0741
         3        2.0000           -0.5436305             -14.7929
         4        2.0000           -0.4939296             -13.4405
         5        2.0000           -0.4303165             -11.7095
         6        2.0000           -0.3581796              -9.7466
         7        2.0000           -0.3562746              -9.6947
         8        2.0000           -0.3561895              -9.6924 (HOMO)
         9                          0.0800075               2.1771 (LUMO)
        10                          0.1545693               4.2060
        11                          0.1551034               4.2206
        12                          0.1571248               4.2756
        13                          0.1571339               4.2758
        14                          0.1782608               4.8507
        15                          0.3177386               8.6461
      -------------------------------------------------------------
                  HL-Gap            0.4361969 Eh           11.8695 eV

     #   Z          covCN         q      C6AA      α(0)
     1  35 Br       0.000    -0.994   195.107    22.446
     2   8 O        1.610    -0.674    27.021     7.016
     3   1 H        0.805     0.311     0.690     1.304
     4   1 H        0.805     0.357     0.573     1.189

Wiberg/Mayer (AO) data.
largest (>0.10) Wiberg bond orders for each atom

     #   Z sym  total        # sym  WBO       # sym  WBO       # sym  WBO
 ---------------------------------------------------------------------------
     1  35 Br   0.011
     2   8 O    1.773 --     3 H    0.896     4 H    0.873
     3   1 H    0.903 --     2 O    0.896
     4   1 H    0.873 --     2 O    0.873
 ---------------------------------------------------------------------------

molecular dipole:
                 x           y           z       tot (Debye)
 q only:        0.248       0.445       0.136
   full:        0.287       0.371       0.425       1.608

 projected vibrational frequencies (cm⁻¹)
eigval :       -0.00    -0.00    -0.00     0.00     0.00     0.00
eigval :       47.78   223.10   427.12  1499.07  3543.70  3590.35

   temp. (K)  partition function   enthalpy   heat capacity  entropy
                                   cal/mol     cal/K/mol   cal/K/mol   J/K/mol
 298.15  VIB   8.45                 1037.765      4.732      7.001
         ROT  0.137E+05              888.752      2.981     21.917
         INT  0.116E+06             1926.517      7.713     28.918
         TR   0.937E+27             1481.254      4.968     39.637
         TOT                        3407.7714    12.6808    68.5554   286.8356

       T/K    H(0)-H(T)+PV         H(T)/Eh          T*S/Eh         G(T)/Eh
   ------------------------------------------------------------------------
    298.15    0.543063E-02    0.266885E-01    0.325729E-01   -0.588433E-02
   ------------------------------------------------------------------------

         :::::::::::::::::::::::::::::::::::::::::::::::::::::
         ::                  THERMODYNAMIC                  ::
         :::::::::::::::::::::::::::::::::::::::::::::::::::::
         :: total free energy          -9.534928741029 Eh   ::
         ::.................................................::
         :: total energy               -9.529044406076 Eh   ::
         :: zero point energy           0.021257898142 Eh   ::
         :: G(RRHO) w/o ZPVE           -0.027142233094 Eh   ::
         :: G(RRHO) contrib.           -0.005884334952 Eh   ::
         :::::::::::::::::::::::::::::::::::::::::::::::::::::

           -------------------------------------------------
          | TOTAL ENERGY               -9.529044406076 Eh   |
          | TOTAL ENTHALPY             -9.502355878601 Eh   |
          | TOTAL FREE ENERGY          -9.534928741029 Eh   |
          | GRADIENT NORM               0.000263711729 Eh/α |
          | HOMO-LUMO GAP              11.869522530196 eV   |
           -------------------------------------------------

 * finished run on 2025/10/18 at 21:40:56.740
normal termination of xtb
