   * xtb version 6.7.1 (edcfbbe) compiled by 'albert@albert-system' on 2024-07-22

   ID    Z sym.   atoms
    1   35 Br     1
    2    8 O      2
    3    1 H      3, 4

          program call               : xtb tb_lite_results_original_gp107_b0_rot90_complex.xyz --ohess --chrg -1 --alpb water
      * Solvation model:               ALPB
        Solvent                        water
        Solvent mass                       1.8000E+01 g/mol
          :  Hamiltonian                  GFN2-xTB          :
 * total energy  :    -9.5266900 Eh     change       -0.1352340E-10 Eh
 * total energy  :    -9.5273644 Eh     change       -0.6744822E-03 Eh
 * total energy  :    -9.5289645 Eh     change       -0.1600034E-02 Eh
 * total energy  :    -9.5290030 Eh     change       -0.3855578E-04 Eh
 * total energy  :    -9.5290327 Eh     change       -0.2966972E-04 Eh
 * total energy  :    -9.5290405 Eh     change       -0.7769100E-05 Eh
 * total energy  :    -9.5290442 Eh     change       -0.3705155E-05 Eh
   *** GEOMETRY OPTIMIZATION CONVERGED AFTER 7 ITERATIONS ***

 final structure:
================
4
 xtb: 6.7.1 (edcfbbe)
Br           0.01238309672502        0.29156218121868       -0.13348422451905
O            0.01308287307247       -2.90232373719308        1.60756133460079
H           -0.05084692653533       -2.11823546548065        1.04906527747630
H            0.46882904857714       -2.62325353147749        2.40892881059379

          :  Hamiltonian                  GFN2-xTB          :
         :: gradient norm              0.000276203888 Eh/a0 ::
         :: HOMO-LUMO gap             11.868386321427 eV    ::
         :: SCC energy                -9.561941462846 Eh    ::
         :: -> dispersion             -0.000786146885 Eh    ::
         :: -> Gsolv                  -0.115524720762 Eh    ::
         :: repulsion energy           0.032897292365 Eh    ::

    * Orbital Energies and Occupations

         #    Occupation            Energy/Eh            Energy/eV
      -------------------------------------------------------------
         1        2.0000           -0.7629975             -20.7622
         2        2.0000           -0.6642003             -18.0738
         3        2.0000           -0.5436202             -14.7927
         4        2.0000           -0.4939195             -13.4402
         5        2.0000           -0.4303060             -11.7092
         6        2.0000           -0.3581829              -9.7467
         7        2.0000           -0.3562766              -9.6948
         8        2.0000           -0.3561914              -9.6925 (HOMO)
         9                          0.0799638               2.1759 (LUMO)
        10                          0.1545617               4.2058
        11                          0.1550977               4.2204
        12                          0.1571205               4.2755
        13                          0.1571297               4.2757
        14                          0.1782544               4.8506
        15                          0.3177678               8.6469
      -------------------------------------------------------------
                  HL-Gap            0.4361552 Eh           11.8684 eV

     #   Z          covCN         q      C6AA      α(0)
     1  35 Br       0.000    -0.994   195.107    22.446
     2   8 O        1.610    -0.674    27.021     7.016
     3   1 H        0.805     0.311     0.690     1.304
     4   1 H        0.805     0.357     0.573     1.189

Wiberg/Mayer (AO) data.
largest (>0.10) Wiberg bond orders for each atom

     #   Z sym  total        # sym  WBO       # sym  WBO       # sym  WBO
 ---------------------------------------------------------------------------
     1  35 Br   0.011
     2   8 O    1.773 --     3 H    0.896     4 H    0.873
     3   1 H    0.903 --     2 O    0.896
     4   1 H    0.873 --     2 O    0.873
 ---------------------------------------------------------------------------

molecular dipole:
                 x           y           z       tot (Debye)
 q only:        0.246       0.136       0.444
   full:        0.286       0.424       0.369       1.603

 projected vibrational frequencies (cm⁻¹)
eigval :       -0.00    -0.00     0.00     0.00     0.00     0.00
eigval :       42.93   223.05   428.19  1499.12  3543.25  3589.96

   temp. (K)  partition function   enthalpy   heat capacity  entropy
                                   cal/mol     cal/K/mol   cal/K/mol   J/K/mol
 298.15  VIB   9.29                 1043.638      4.629      7.006
         ROT  0.137E+05              888.752      2.981     21.916
         INT  0.128E+06             1932.390      7.610     28.922
         TR   0.937E+27             1481.254      4.968     39.637
         TOT                        3413.6444    12.5781    68.5595   286.8530

       T/K    H(0)-H(T)+PV         H(T)/Eh          T*S/Eh         G(T)/Eh
   ------------------------------------------------------------------------
    298.15    0.543999E-02    0.266873E-01    0.325748E-01   -0.588752E-02
   ------------------------------------------------------------------------

         :::::::::::::::::::::::::::::::::::::::::::::::::::::
         ::                  THERMODYNAMIC                  ::
         :::::::::::::::::::::::::::::::::::::::::::::::::::::
         :: total free energy          -9.534931693328 Eh   ::
         ::.................................................::
         :: total energy               -9.529044171025 Eh   ::
         :: zero point energy           0.021247328694 Eh   ::
         :: G(RRHO) w/o ZPVE           -0.027134850998 Eh   ::
         :: G(RRHO) contrib.           -0.005887522304 Eh   ::
         :::::::::::::::::::::::::::::::::::::::::::::::::::::

           -------------------------------------------------
          | TOTAL ENERGY               -9.529044171025 Eh   |
          | TOTAL ENTHALPY             -9.502356853774 Eh   |
          | TOTAL FREE ENERGY          -9.534931693328 Eh   |
          | GRADIENT NORM               0.000276218690 Eh/α |
          | HOMO-LUMO GAP              11.868386529909 eV   |
           -------------------------------------------------

 * finished run on 2025/10/18 at 21:40:50.108
normal termination of xtb
