   * xtb version 6.7.1 (edcfbbe) compiled by 'albert@albert-system' on 2024-07-22

   ID    Z sym.   atoms
    1   35 Br     1

          program call               : xtb tb_lite_results_original_gp103_b0_rot180_solute.xyz --ohess --chrg -1
          :  Hamiltonian                  GFN2-xTB          :

 final structure:
================
1
 xtb: 6.7.1 (edcfbbe)
Br           0.00000000000000        0.00000000000000        0.00000000000000

          :  Hamiltonian                  GFN2-xTB          :
         :: gradient norm              0.000000000000 Eh/a0 ::
         :: HOMO-LUMO gap             13.977853947265 eV    ::
         :: SCC energy                -4.332231166472 Eh    ::
         :: -> dispersion              0.000000000000 Eh    ::
         :: repulsion energy           0.000000000000 Eh    ::

    * Orbital Energies and Occupations

         #    Occupation            Energy/Eh            Energy/eV
      -------------------------------------------------------------
         1        2.0000           -0.5374684             -14.6253
         2        2.0000           -0.1304471              -3.5496
         3        2.0000           -0.1304471              -3.5496
         4        2.0000           -0.1304471              -3.5496 (HOMO)
         5                          0.3832311              10.4282 (LUMO)
         6                          0.3832311              10.4282
         7                          0.3832311              10.4282
         8                          0.3832311              10.4282
         9                          0.3832311              10.4282
      -------------------------------------------------------------
                  HL-Gap            0.5136782 Eh           13.9779 eV

     #   Z          covCN         q      C6AA      α(0)
     1  35 Br       0.000    -1.000   195.297    22.457

Wiberg/Mayer (AO) data.
largest (>0.10) Wiberg bond orders for each atom

     #   Z sym  total        # sym  WBO       # sym  WBO       # sym  WBO
 ---------------------------------------------------------------------------
     1  35 Br   0.000
 ---------------------------------------------------------------------------

molecular dipole:
                 x           y           z       tot (Debye)
 q only:        0.000       0.000       0.000
   full:        0.000       0.000       0.000       0.000

   temp. (K)  partition function   enthalpy   heat capacity  entropy
                                   cal/mol     cal/K/mol   cal/K/mol   J/K/mol
 298.15  VIB   1.00                    0.000      0.000      0.000
         ROT   1.00                    0.000      0.000      0.000
         INT   1.00                    0.000      0.000      0.000
         TR   0.691E+27             1481.254      4.968     39.032
         TOT                        1481.2539     4.9681    39.0316   163.3080

       T/K    H(0)-H(T)+PV         H(T)/Eh          T*S/Eh         G(T)/Eh
   ------------------------------------------------------------------------
    298.15    0.236053E-02    0.236053E-02    0.185451E-01   -0.161846E-01
   ------------------------------------------------------------------------

         :::::::::::::::::::::::::::::::::::::::::::::::::::::
         ::                  THERMODYNAMIC                  ::
         :::::::::::::::::::::::::::::::::::::::::::::::::::::
         :: total free energy          -4.348415787523 Eh   ::
         ::.................................................::
         :: total energy               -4.332231166472 Eh   ::
         :: zero point energy           0.000000000000 Eh   ::
         :: G(RRHO) w/o ZPVE           -0.016184621051 Eh   ::
         :: G(RRHO) contrib.           -0.016184621051 Eh   ::
         :::::::::::::::::::::::::::::::::::::::::::::::::::::

           -------------------------------------------------
          | TOTAL ENERGY               -4.332231166472 Eh   |
          | TOTAL ENTHALPY             -4.329870638092 Eh   |
          | TOTAL FREE ENERGY          -4.348415787523 Eh   |
          | GRADIENT NORM               0.000000000000 Eh/α |
          | HOMO-LUMO GAP              13.977894347030 eV   |
           -------------------------------------------------

 * finished run on 2025/10/18 at 21:40:52.728
normal termination of xtb
