   * xtb version 6.7.1 (edcfbbe) compiled by 'albert@albert-system' on 2024-07-22

   ID    Z sym.   atoms
    1   35 Br     1
    2    8 O      2
    3    1 H      3, 4

          program call               : xtb tb_lite_results_original_gp102_b0_rot0_complex.xyz --ohess --chrg -1 --alpb water
      * Solvation model:               ALPB
        Solvent                        water
        Solvent mass                       1.8000E+01 g/mol
          :  Hamiltonian                  GFN2-xTB          :
 * total energy  :    -9.5266900 Eh     change       -0.1352696E-10 Eh
 * total energy  :    -9.5273026 Eh     change       -0.6126854E-03 Eh
 * total energy  :    -9.5289639 Eh     change       -0.1661305E-02 Eh
 * total energy  :    -9.5290023 Eh     change       -0.3835787E-04 Eh
 * total energy  :    -9.5290327 Eh     change       -0.3044458E-04 Eh
 * total energy  :    -9.5290407 Eh     change       -0.7983997E-05 Eh
 * total energy  :    -9.5290444 Eh     change       -0.3675611E-05 Eh
   *** GEOMETRY OPTIMIZATION CONVERGED AFTER 7 ITERATIONS ***

 final structure:
================
4
 xtb: 6.7.1 (edcfbbe)
Br           0.01175760686075       -0.13453217547166       -0.29143689026173
O            0.01322525472915        1.60805692513246        2.90228211681803
H           -0.05057869922677        1.04927328053349        2.11842037953067
H            0.46904392947616        2.40927316795754        2.62298494684558

          :  Hamiltonian                  GFN2-xTB          :
         :: gradient norm              0.000263695183 Eh/a0 ::
         :: HOMO-LUMO gap             11.869522384597 eV    ::
         :: SCC energy                -9.561949678501 Eh    ::
         :: -> dispersion             -0.000785971822 Eh    ::
         :: -> Gsolv                  -0.115530537729 Eh    ::
         :: repulsion energy           0.032905271659 Eh    ::

    * Orbital Energies and Occupations

         #    Occupation            Energy/Eh            Energy/eV
      -------------------------------------------------------------
         1        2.0000           -0.7629945             -20.7621
         2        2.0000           -0.6642128             -18.0741
         3        2.0000           -0.5436305             -14.7929
         4        2.0000           -0.4939296             -13.4405
         5        2.0000           -0.4303165             -11.7095
         6        2.0000           -0.3581796              -9.7466
         7        2.0000           -0.3562746              -9.6947
         8        2.0000           -0.3561895              -9.6924 (HOMO)
         9                          0.0800075               2.1771 (LUMO)
        10                          0.1545693               4.2060
        11                          0.1551034               4.2206
        12                          0.1571248               4.2756
        13                          0.1571339               4.2758
        14                          0.1782608               4.8507
        15                          0.3177387               8.6461
      -------------------------------------------------------------
                  HL-Gap            0.4361969 Eh           11.8695 eV

     #   Z          covCN         q      C6AA      α(0)
     1  35 Br       0.000    -0.994   195.107    22.446
     2   8 O        1.610    -0.674    27.021     7.016
     3   1 H        0.805     0.311     0.690     1.304
     4   1 H        0.805     0.357     0.573     1.189

Wiberg/Mayer (AO) data.
largest (>0.10) Wiberg bond orders for each atom

     #   Z sym  total        # sym  WBO       # sym  WBO       # sym  WBO
 ---------------------------------------------------------------------------
     1  35 Br   0.011
     2   8 O    1.773 --     3 H    0.896     4 H    0.873
     3   1 H    0.903 --     2 O    0.896
     4   1 H    0.873 --     2 O    0.873
 ---------------------------------------------------------------------------

molecular dipole:
                 x           y           z       tot (Debye)
 q only:        0.248       0.445      -0.136
   full:        0.287       0.371      -0.425       1.608

 projected vibrational frequencies (cm⁻¹)
eigval :       -0.00    -0.00    -0.00     0.00     0.00     0.00
eigval :       47.78   223.11   427.13  1499.07  3543.70  3590.35

   temp. (K)  partition function   enthalpy   heat capacity  entropy
                                   cal/mol     cal/K/mol   cal/K/mol   J/K/mol
 298.15  VIB   8.45                 1037.756      4.732      7.001
         ROT  0.137E+05              888.752      2.981     21.917
         INT  0.116E+06             1926.509      7.713     28.918
         TR   0.937E+27             1481.254      4.968     39.637
         TOT                        3407.7626    12.6808    68.5553   286.8353

       T/K    H(0)-H(T)+PV         H(T)/Eh          T*S/Eh         G(T)/Eh
   ------------------------------------------------------------------------
    298.15    0.543062E-02    0.266885E-01    0.325728E-01   -0.588428E-02
   ------------------------------------------------------------------------

         :::::::::::::::::::::::::::::::::::::::::::::::::::::
         ::                  THERMODYNAMIC                  ::
         :::::::::::::::::::::::::::::::::::::::::::::::::::::
         :: total free energy          -9.534928688544 Eh   ::
         ::.................................................::
         :: total energy               -9.529044408114 Eh   ::
         :: zero point energy           0.021257926342 Eh   ::
         :: G(RRHO) w/o ZPVE           -0.027142206771 Eh   ::
         :: G(RRHO) contrib.           -0.005884280429 Eh   ::
         :::::::::::::::::::::::::::::::::::::::::::::::::::::

           -------------------------------------------------
          | TOTAL ENERGY               -9.529044408114 Eh   |
          | TOTAL ENTHALPY             -9.502355866391 Eh   |
          | TOTAL FREE ENERGY          -9.534928688544 Eh   |
          | GRADIENT NORM               0.000263718778 Eh/α |
          | HOMO-LUMO GAP              11.869522599556 eV   |
           -------------------------------------------------

 * finished run on 2025/10/18 at 21:40:54.423
normal termination of xtb
