   * xtb version 6.7.1 (edcfbbe) compiled by 'albert@albert-system' on 2024-07-22

   ID    Z sym.   atoms
    1    6 C      1-6
    2    8 O      7, 13, 14
    3    1 H      8-10, 12
    4    7 N      11

          program call               : xtb xyz.xyz --charge -1 --ohess
          :  Hamiltonian                  GFN2-xTB          :
 * total energy  :   -30.1206913 Eh     change       -0.1791602E-08 Eh
 * total energy  :   -30.1350979 Eh     change       -0.1440662E-01 Eh
 * total energy  :   -30.1396595 Eh     change       -0.4561549E-02 Eh
 * total energy  :   -30.1401153 Eh     change       -0.4558045E-03 Eh
 * total energy  :   -30.1402525 Eh     change       -0.1372455E-03 Eh
 * total energy  :   -30.1402622 Eh     change       -0.9660540E-05 Eh
 * total energy  :   -30.1402595 Eh     change        0.2710486E-05 Eh
 * total energy  :   -30.1402634 Eh     change       -0.3928474E-05 Eh
   *** GEOMETRY OPTIMIZATION CONVERGED AFTER 8 ITERATIONS ***

 final structure:
================
14
 xtb: 6.7.1 (edcfbbe)
C           -2.08430121872557       -2.83880108307753        1.55036069237842
C           -2.51516747580167       -2.18605549057774        0.41919405804255
C           -3.70623807488761       -2.52275908133828       -0.20035134828796
C           -4.46200957969987       -3.55722696027277        0.36771345664544
C           -4.05083433240867       -4.22921345120370        1.50471056199672
C           -2.82257010781290       -3.90590962352067        2.17159385269154
O           -2.42676779366990       -4.49625712678995        3.19989548178386
H           -1.14788912692650       -2.55403291346782        2.01396950424490
H           -1.91124503851786       -1.38832222869312       -0.00097254292777
H           -4.05627340439699       -2.01983983226713       -1.08727865378888
N           -5.68276410120181       -3.91670832913584       -0.25067828983254
H           -4.66558200578940       -5.02041478187092        1.90801745143014
O           -6.03866191151495       -3.31268356639340       -1.26035758214674
O           -6.35938482864630       -4.81860253139113        0.23017135777032

          :  Hamiltonian                  GFN2-xTB          :
         :: gradient norm              0.000553914796 Eh/a0 ::
         :: HOMO-LUMO gap              0.696549728406 eV    ::
         :: SCC energy               -30.471688821578 Eh    ::
         :: -> dispersion             -0.012877033348 Eh    ::
         :: repulsion energy           0.331425408663 Eh    ::

    * Orbital Energies and Occupations

         #    Occupation            Energy/Eh            Energy/eV
      -------------------------------------------------------------
         1        2.0000           -0.6182915             -16.8246
       ...           ...                  ...                  ...
        14        2.0000           -0.3570022              -9.7145
        15        2.0000           -0.3500331              -9.5249
        16        2.0000           -0.3415161              -9.2931
        17        2.0000           -0.3269433              -8.8966
        18        2.0000           -0.3229323              -8.7874
        19        2.0000           -0.3022751              -8.2253
        20        2.0000           -0.3006481              -8.1811
        21        2.0000           -0.2988033              -8.1309
        22        2.0000           -0.2902650              -7.8985
        23        2.0000           -0.2877055              -7.8289
        24        2.0000           -0.2688052              -7.3146
        25        2.0000           -0.1982594              -5.3949
        26        2.0000           -0.1952042              -5.3118 (HOMO)
        27        0.0000           -0.1696066              -4.6152 (LUMO)
        28                         -0.0681884              -1.8555
        29                         -0.0425599              -1.1581
        30                          0.0655564               1.7839
        31                          0.1596272               4.3437
        32                          0.2641200               7.1871
        33                          0.2758619               7.5066
        34                          0.3188794               8.6772
        35                          0.3338048               9.0833
        36                          0.3778983              10.2831
        37                          0.3904610              10.6250
       ...                                ...                  ...
        44                          0.8360294              22.7495
      -------------------------------------------------------------
                  HL-Gap            0.0255976 Eh            0.6965 eV

     #   Z          covCN         q      C6AA      α(0)
     1   6 C        2.916    -0.083    30.078     8.993
     2   6 C        2.913    -0.041    29.028     8.835
     3   6 C        2.916    -0.073    29.817     8.954
     4   6 C        2.907    -0.013    28.335     8.728
     5   6 C        2.916    -0.086    30.167     9.007
     6   6 C        2.827     0.192    23.897     8.010
     7   8 O        0.858    -0.569    25.380     6.754
     8   1 H        0.925     0.005     2.968     2.694
     9   1 H        0.925    -0.008     3.208     2.801
    10   1 H        0.926     0.019     2.745     2.591
    11   7 N        2.764     0.514    13.872     5.532
    12   1 H        0.926     0.036     2.500     2.473
    13   8 O        0.929    -0.452    22.715     6.392
    14   8 O        0.929    -0.440    22.467     6.357

Wiberg/Mayer (AO) data.
largest (>0.10) Wiberg bond orders for each atom

     #   Z sym  total        # sym  WBO       # sym  WBO       # sym  WBO
 ---------------------------------------------------------------------------
     1   6 C    3.985 --     2 C    1.492     6 C    1.181     8 H    0.973
                             7 O    0.108
     2   6 C    3.991 --     1 C    1.492     3 C    1.418     9 H    0.970
     3   6 C    3.981 --     2 C    1.418     4 C    1.293    10 H    0.969
     4   6 C    3.943 --     5 C    1.402     3 C    1.293    11 N    1.022
     5   6 C    3.982 --     4 C    1.402     6 C    1.195    12 H    0.967
                             7 O    0.108
     6   6 C    3.972 --     7 O    1.510     5 C    1.195     1 C    1.181
     7   8 O    1.840 --     6 C    1.510     1 C    0.108     5 C    0.108
     8   1 H    1.000 --     1 C    0.973
     9   1 H    0.999 --     2 C    0.970
    10   1 H    1.000 --     3 C    0.969
    11   7 N    3.896 --    14 O    1.409    13 O    1.397     4 C    1.022
    12   1 H    0.999 --     5 C    0.967
    13   8 O    1.862 --    11 N    1.397    14 O    0.310
    14   8 O    1.876 --    11 N    1.409    13 O    0.310
 ---------------------------------------------------------------------------

molecular dipole:
                 x           y           z       tot (Debye)
 q only:        7.875       7.776      -2.405
   full:        7.845       7.951      -2.635      29.170

 projected vibrational frequencies (cm⁻¹)
eigval :       -0.00    -0.00    -0.00     0.00     0.00     0.00
eigval :       33.52   146.81   179.74   212.03   380.27   382.85
eigval :      430.18   487.98   497.02   557.68   624.34   659.60
eigval :      729.35   762.76   790.44   791.51   853.65   909.36
eigval :      945.32   974.61  1110.79  1119.01  1175.96  1226.48
eigval :     1278.32  1338.12  1375.73  1450.22  1502.37  1548.93
eigval :     1579.86  1624.95  3005.52  3048.44  3090.23  3102.26

   temp. (K)  partition function   enthalpy   heat capacity  entropy
                                   cal/mol     cal/K/mol   cal/K/mol   J/K/mol
 298.15  VIB   97.4                 3262.964     23.106     18.652
         ROT  0.593E+06              888.752      2.981     29.399
         INT  0.578E+08             4151.716     26.086     48.051
         TR   0.157E+28             1481.254      4.968     40.662
         TOT                        5632.9701    31.0546    88.7127   371.1741

       T/K    H(0)-H(T)+PV         H(T)/Eh          T*S/Eh         G(T)/Eh
   ------------------------------------------------------------------------
    298.15    0.897671E-02    0.999353E-01    0.421503E-01    0.577850E-01
   ------------------------------------------------------------------------

         :::::::::::::::::::::::::::::::::::::::::::::::::::::
         ::                  THERMODYNAMIC                  ::
         :::::::::::::::::::::::::::::::::::::::::::::::::::::
         :: total free energy         -30.082478396268 Eh   ::
         ::.................................................::
         :: total energy              -30.140263412981 Eh   ::
         :: zero point energy           0.090958593501 Eh   ::
         :: G(RRHO) w/o ZPVE           -0.033173576788 Eh   ::
         :: G(RRHO) contrib.            0.057785016713 Eh   ::
         :::::::::::::::::::::::::::::::::::::::::::::::::::::

           -------------------------------------------------
          | TOTAL ENERGY              -30.140263412981 Eh   |
          | TOTAL ENTHALPY            -30.040328110162 Eh   |
          | TOTAL FREE ENERGY         -30.082478396268 Eh   |
          | GRADIENT NORM               0.000553943530 Eh/α |
          | HOMO-LUMO GAP               0.696547502465 eV   |
           -------------------------------------------------

 * finished run on 2025/10/18 at 04:37:08.798
