                         Program Version 5.0.4 -  RELEASE  -
|  1> ! OPT PBE D3BJ CPCM(water)
|  2>
|  3> *xyz -1 1
|  4> C     -3.801663   -0.652693   -0.684697
|  5> C     -2.550937    0.179427   -0.798703
|  6> N     -1.456920   -0.538684   -0.582685
|  7> O     -2.581913    1.366965   -1.099866
|  8> H     -4.626442   -0.013127   -0.354521
|  9> H     -4.047386   -1.080342   -1.661177
| 10> H     -3.690616   -1.456248    0.050869
| 11> H     -0.665373    0.104176   -0.694118
| 12> *
| 13>
| 14>                          ****END OF INPUT****
 Total Charge           Charge          ....   -1
 Multiplicity           Mult            ....    1
 Number of Electrons    NEL             ....   32
Dispersion correction           -0.004587292
FINAL SINGLE POINT ENERGY      -208.310147093091
Dispersion correction            ... done
Dispersion correction           -0.004541865
FINAL SINGLE POINT ENERGY      -208.316001440185
Dispersion correction            ... done
Dispersion correction           -0.004532492
FINAL SINGLE POINT ENERGY      -208.316701987073
Dispersion correction            ... done
FINAL SINGLE POINT ENERGY      -208.316817970169
FINAL SINGLE POINT ENERGY      -208.316970895557
FINAL SINGLE POINT ENERGY      -208.317083838827
FINAL SINGLE POINT ENERGY      -208.317271469321
FINAL SINGLE POINT ENERGY      -208.317391524133
FINAL SINGLE POINT ENERGY      -208.317447455501
FINAL SINGLE POINT ENERGY      -208.317468543164
Dispersion correction            ... done
Dispersion correction           -0.004531393
FINAL SINGLE POINT ENERGY      -208.317472631823
Dispersion correction            ... done
Dispersion correction           -0.004531558
FINAL SINGLE POINT ENERGY      -208.317473397680
Dispersion correction            ... done
                    ***********************HURRAY********************

CARTESIAN COORDINATES (ANGSTROEM)
---------------------------------
  C     -3.811318   -0.661628   -0.675668
  C     -2.496413    0.130439   -0.851168
  N     -1.412929   -0.472893   -0.364267
  O     -2.586384    1.260475   -1.435856
  H     -4.551342   -0.045494   -0.120897
  H     -4.263766   -0.866902   -1.669948
  H     -3.666692   -1.621259   -0.140914
  H     -0.632407    0.186735   -0.566180

 Multiplicity           Mult            ....    1
 Number of Electrons    NEL             ....   32
 Basis Dimension        Dim             ....   76

ORBITAL ENERGIES
----------------

  NO   OCC          E(Eh)            E(eV)
   0   2.0000     -18.649638      -507.4825
   1   2.0000     -13.894129      -378.0785
   2   2.0000      -9.909851      -269.6607
   3   2.0000      -9.863817      -268.4081
   4   2.0000      -0.838264       -22.8103
   5   2.0000      -0.696099       -18.9418
   6   2.0000      -0.601423       -16.3656
   7   2.0000      -0.420052       -11.4302
   8   2.0000      -0.349875        -9.5206
   9   2.0000      -0.343694        -9.3524
  10   2.0000      -0.305945        -8.3252
  11   2.0000      -0.295577        -8.0430
  12   2.0000      -0.255017        -6.9394
  13   2.0000      -0.187630        -5.1057
  14   2.0000      -0.140140        -3.8134
  15   2.0000      -0.133482        -3.6322
  16   0.0000       0.061613         1.6766
  17   0.0000       0.071654         1.9498
  18   0.0000       0.112801         3.0695
  19   0.0000       0.127423         3.4674
  20   0.0000       0.143505         3.9050

MULLIKEN ATOMIC CHARGES
-----------------------
   0 C :   -0.019944
   1 C :   -0.168909
   2 N :   -0.376981
   3 O :   -0.460981
   4 H :    0.011446
   5 H :    0.013387
   6 H :   -0.016172
   7 H :    0.018154
Sum of atomic charges:   -1.0000000

LOEWDIN ATOMIC CHARGES
----------------------
   0 C :   -0.123167
   1 C :   -0.084229
   2 N :   -0.405964
   3 O :   -0.437383
   4 H :    0.022524
   5 H :    0.023438
   6 H :    0.009295
   7 H :   -0.004513

  Mayer bond orders larger than 0.100000
B(  0-C ,  1-C ) :   0.9829 B(  0-C ,  4-H ) :   0.9588 B(  0-C ,  5-H ) :   0.9591
B(  0-C ,  6-H ) :   0.9500 B(  1-C ,  2-N ) :   1.6831 B(  1-C ,  3-O ) :   1.8028
B(  2-N ,  3-O ) :   0.1379 B(  2-N ,  7-H ) :   0.9396

Dispersion correction           -0.004531677
FINAL SINGLE POINT ENERGY      -208.317473494317

DIPOLE MOMENT
-------------
                                X             Y             Z
Electronic contribution:      1.67293       2.12457      -0.78633
Nuclear contribution   :     -2.59193      -2.49750       0.81303
                        -----------------------------------------
Total Dipole Moment    :     -0.91900      -0.37293       0.02670
                        -----------------------------------------
Magnitude (a.u.)       :      0.99214
Magnitude (Debye)      :      2.52183

Rotational constants in cm-1:     0.369733     0.317002     0.176353
Rotational constants in MHz : 11084.328836  9503.487178  5286.942443

                             ****ORCA TERMINATED NORMALLY****
TOTAL RUN TIME: 0 days 0 hours 3 minutes 9 seconds 451 msec
