   * xtb version 6.7.1 (edcfbbe) compiled by 'albert@albert-system' on 2024-07-22

   ID    Z sym.   atoms
    1    6 C      1, 2
    2    8 O      3, 6, 10
    3    1 H      4, 5, 7-9, 11, 12

          program call               : xtb tb_lite_results_shiftn0p2_gp322_b0_rot90_complex.xyz --ohess --chrg 1 --alpb water
      * Solvation model:               ALPB
        Solvent                        water
        Solvent mass                       1.8000E+01 g/mol
          :  Hamiltonian                  GFN2-xTB          :
 * total energy  :   -19.4128221 Eh     change       -0.2300027E-10 Eh
 * total energy  :   -19.4454758 Eh     change       -0.3265371E-01 Eh
 * total energy  :   -19.4563328 Eh     change       -0.1085696E-01 Eh
 * total energy  :   -19.4651344 Eh     change       -0.8801655E-02 Eh
 * total energy  :   -19.4685028 Eh     change       -0.3368382E-02 Eh
 * total energy  :   -19.4730873 Eh     change       -0.4584453E-02 Eh
 * total energy  :   -19.4762548 Eh     change       -0.3167541E-02 Eh
 * total energy  :   -19.4765012 Eh     change       -0.2463669E-03 Eh
 * total energy  :   -19.4784686 Eh     change       -0.1967414E-02 Eh
 * total energy  :   -19.4797639 Eh     change       -0.1295258E-02 Eh
 * total energy  :   -19.5144190 Eh     change       -0.1615573E-03 Eh
 * total energy  :   -19.5145169 Eh     change       -0.9783220E-04 Eh
 * total energy  :   -19.5146022 Eh     change       -0.8531282E-04 Eh
 * total energy  :   -19.5146553 Eh     change       -0.5314951E-04 Eh
 * total energy  :   -19.5146691 Eh     change       -0.1380052E-04 Eh
 * total energy  :   -19.5146827 Eh     change       -0.1360932E-04 Eh
 * total energy  :   -19.5146917 Eh     change       -0.8935085E-05 Eh
 * total energy  :   -19.5146977 Eh     change       -0.6048721E-05 Eh
 * total energy  :   -19.5147006 Eh     change       -0.2868167E-05 Eh
   *** GEOMETRY OPTIMIZATION CONVERGED AFTER 103 ITERATIONS ***

 final structure:
================
12
 xtb: 6.7.1 (edcfbbe)
C           -7.49909420257394       -4.58128424948422        1.71633561073068
C           -7.44986127566867       -3.07919829030450        1.49822267744517
O           -7.53832650000492       -5.31775873131416        0.48154460493853
H           -6.58130415569133       -4.95536228319544        2.16993095891528
H           -8.35471167707807       -4.86906213500122        2.33415103974385
O           -8.60215843292710       -5.10121768598647       -0.26472987900437
H           -6.59225020055047       -2.81325523783001        0.88616303463927
H           -8.35119904054147       -2.72250217996444        1.00741288880448
H           -7.35946945855493       -2.58160346199922        2.45762943639475
O           -9.75300801032213       -6.05734745245416        0.10641310522482
H          -10.56636485190156       -5.54746368767883       -0.18031453102642
H           -9.61212351072005       -6.87363993005837       -0.45674226311121

          :  Hamiltonian                  GFN2-xTB          :
         :: gradient norm              0.000639175248 Eh/a0 ::
         :: HOMO-LUMO gap              3.598153817900 eV    ::
         :: SCC energy               -19.646243771119 Eh    ::
         :: -> dispersion             -0.004218341860 Eh    ::
         :: -> Gsolv                  -0.137398935312 Eh    ::
         :: repulsion energy           0.131543187655 Eh    ::

    * Orbital Energies and Occupations

         #    Occupation            Energy/Eh            Energy/eV
      -------------------------------------------------------------
         1        2.0000           -0.8111327             -22.0720
       ...           ...                  ...                  ...
         4        2.0000           -0.7104573             -19.3325
         5        2.0000           -0.6897662             -18.7695
         6        2.0000           -0.6663763             -18.1330
         7        2.0000           -0.6589175             -17.9301
         8        2.0000           -0.6137334             -16.7005
         9        2.0000           -0.6008277             -16.3494
        10        2.0000           -0.5795244             -15.7697
        11        2.0000           -0.5461687             -14.8620
        12        2.0000           -0.5162069             -14.0467
        13        2.0000           -0.5054089             -13.7529
        14        2.0000           -0.4703735             -12.7995
        15        2.0000           -0.4681300             -12.7385
        16        2.0000           -0.4523941             -12.3103 (HOMO)
        17                         -0.3201647              -8.7121 (LUMO)
        18                         -0.0931990              -2.5361
        19                         -0.0078841              -0.2145
        20                          0.0284003               0.7728
        21                          0.1067003               2.9035
        22                          0.1508914               4.1060
        23                          0.1646479               4.4803
        24                          0.1700455               4.6272
        25                          0.1882322               5.1221
        26                          0.2407543               6.5513
        27                          0.2771901               7.5427
      -------------------------------------------------------------
                  HL-Gap            0.1322295 Eh            3.5981 eV

     #   Z          covCN         q      C6AA      α(0)
     1   6 C        3.673     0.045    20.047     6.417
     2   6 C        3.751    -0.139    23.238     6.875
     3   8 O        1.817    -0.117    16.067     5.413
     4   1 H        0.925     0.102     1.765     2.078
     5   1 H        0.924     0.101     1.777     2.085
     6   8 O        1.766    -0.031    14.871     5.207
     7   1 H        0.925     0.061     2.187     2.313
     8   1 H        0.925     0.076     2.019     2.222
     9   1 H        0.925     0.067     2.114     2.273
    10   8 O        2.391    -0.215    17.540     5.656
    11   1 H        0.799     0.528     0.307     0.871
    12   1 H        0.799     0.521     0.314     0.881

Wiberg/Mayer (AO) data.
largest (>0.10) Wiberg bond orders for each atom

     #   Z sym  total        # sym  WBO       # sym  WBO       # sym  WBO
 ---------------------------------------------------------------------------
     1   6 C    3.899 --     2 C    1.019     5 H    0.957     4 H    0.953
                             3 O    0.927
     2   6 C    3.986 --     1 C    1.019     7 H    0.984     8 H    0.981
                             9 H    0.979
     3   8 O    2.263 --     6 O    1.145     1 C    0.927    10 O    0.150
     4   1 H    0.990 --     1 C    0.953
     5   1 H    0.990 --     1 C    0.957
     6   8 O    2.036 --     3 O    1.145    10 O    0.820
     7   1 H    0.996 --     2 C    0.984
     8   1 H    0.994 --     2 C    0.981
     9   1 H    0.995 --     2 C    0.979
    10   8 O    2.428 --     6 O    0.820    12 H    0.724    11 H    0.717
                             3 O    0.150
    11   1 H    0.721 --    10 O    0.717
    12   1 H    0.728 --    10 O    0.724
 ---------------------------------------------------------------------------

molecular dipole:
                 x           y           z       tot (Debye)
 q only:      -18.323     -10.881       0.413
   full:      -18.296     -10.873       0.371      54.104

 projected vibrational frequencies (cm⁻¹)
eigval :       -0.00    -0.00    -0.00     0.00     0.00     0.00
eigval :       62.69   144.27   204.88   265.92   345.42   395.02
eigval :      517.15   568.58   813.29   869.78   878.48   921.63
eigval :     1023.51  1080.03  1097.59  1146.96  1186.77  1220.82
eigval :     1287.99  1403.75  1418.40  1470.24  1480.83  2885.24
eigval :     2941.92  2961.65  3015.97  3055.57  3062.07  3076.27

   temp. (K)  partition function   enthalpy   heat capacity  entropy
                                   cal/mol     cal/K/mol   cal/K/mol   J/K/mol
 298.15  VIB   31.2                 2491.221     16.802     14.887
         ROT  0.956E+05              888.752      2.981     25.770
         INT  0.298E+07             3379.973     19.783     40.657
         TR   0.680E+27             1481.254      4.968     39.001
         TOT                        4861.2271    24.7513    79.6571   333.2851

       T/K    H(0)-H(T)+PV         H(T)/Eh          T*S/Eh         G(T)/Eh
   ------------------------------------------------------------------------
    298.15    0.774686E-02    0.100702E+00    0.378476E-01    0.628546E-01
   ------------------------------------------------------------------------

         :::::::::::::::::::::::::::::::::::::::::::::::::::::
         ::                  THERMODYNAMIC                  ::
         :::::::::::::::::::::::::::::::::::::::::::::::::::::
         :: total free energy         -19.451845999318 Eh   ::
         ::.................................................::
         :: total energy              -19.514700591636 Eh   ::
         :: zero point energy           0.092955369825 Eh   ::
         :: G(RRHO) w/o ZPVE           -0.030100777507 Eh   ::
         :: G(RRHO) contrib.            0.062854592318 Eh   ::
         :::::::::::::::::::::::::::::::::::::::::::::::::::::

           -------------------------------------------------
          | TOTAL ENERGY              -19.514700591636 Eh   |
          | TOTAL ENTHALPY            -19.413998363313 Eh   |
          | TOTAL FREE ENERGY         -19.451845999318 Eh   |
          | GRADIENT NORM               0.000639152403 Eh/α |
          | HOMO-LUMO GAP               3.598146863555 eV   |
           -------------------------------------------------

 * finished run on 2025/10/18 at 02:43:32.642
normal termination of xtb
