   * xtb version 6.7.1 (edcfbbe) compiled by 'albert@albert-system' on 2024-07-22

   ID    Z sym.   atoms
    1    6 C      1, 2
    2    8 O      3, 6, 10
    3    1 H      4, 5, 7-9, 11, 12

          program call               : xtb tb_lite_results_shiftn0p2_gp348_b0_rot180_complex.xyz --ohess --chrg 1 --alpb water
      * Solvation model:               ALPB
        Solvent                        water
        Solvent mass                       1.8000E+01 g/mol
          :  Hamiltonian                  GFN2-xTB          :
 * total energy  :   -19.4197185 Eh     change        0.1661355E-09 Eh
 * total energy  :   -19.4516184 Eh     change       -0.3189988E-01 Eh
 * total energy  :   -19.4594520 Eh     change       -0.7833635E-02 Eh
 * total energy  :   -19.4689173 Eh     change       -0.9465313E-02 Eh
 * total energy  :   -19.4715852 Eh     change       -0.2667874E-02 Eh
 * total energy  :   -19.4767588 Eh     change       -0.5173563E-02 Eh
 * total energy  :   -19.4800999 Eh     change       -0.3341097E-02 Eh
 * total energy  :   -19.4811229 Eh     change       -0.1023019E-02 Eh
 * total energy  :   -19.4809118 Eh     change        0.2111225E-03 Eh
 * total energy  :   -19.4829246 Eh     change       -0.2012796E-02 Eh
 * total energy  :   -19.4945270 Eh     change       -0.8318920E-04 Eh
 * total energy  :   -19.4946018 Eh     change       -0.7477405E-04 Eh
 * total energy  :   -19.4946261 Eh     change       -0.2436393E-04 Eh
 * total energy  :   -19.4946775 Eh     change       -0.5136297E-04 Eh
 * total energy  :   -19.4946932 Eh     change       -0.1569119E-04 Eh
 * total energy  :   -19.4947112 Eh     change       -0.1802081E-04 Eh
 * total energy  :   -19.4947164 Eh     change       -0.5165723E-05 Eh
 * total energy  :   -19.4947243 Eh     change       -0.7967745E-05 Eh
 * total energy  :   -19.4947283 Eh     change       -0.3937642E-05 Eh
   *** GEOMETRY OPTIMIZATION CONVERGED AFTER 61 ITERATIONS ***

 final structure:
================
12
 xtb: 6.7.1 (edcfbbe)
C           -7.26357872261308       -4.69680560115035        1.76836484074807
C           -8.09849381239470       -3.68248602147796        1.11326673658092
O           -6.30474254994284       -5.33308704484302        1.04614757315946
H           -6.72817407450897       -4.33958445218271        2.68468496446461
H           -7.83127069107806       -5.51438190747487        2.28107561080616
O           -6.15002711754057       -5.01626804035778       -0.17904895615838
H           -7.52758997605829       -3.10198092826556        0.38479340771175
H           -8.86761349840635       -4.20285462659228        0.47053201609529
H           -8.63641364068092       -3.06368711868394        1.82155618568840
O          -10.00783484212676       -5.14763682141666       -0.36219005923806
H           -9.86188824771612       -5.16935916495921       -1.31456265171337
H          -10.90874522705490       -4.84144396109838       -0.20272263230665

          :  Hamiltonian                  GFN2-xTB          :
         :: gradient norm              0.000752764941 Eh/a0 ::
         :: HOMO-LUMO gap              0.988904359574 eV    ::
         :: SCC energy               -19.636852006722 Eh    ::
         :: -> dispersion             -0.003775742811 Eh    ::
         :: -> Gsolv                  -0.128079786718 Eh    ::
         :: repulsion energy           0.142123725563 Eh    ::

    * Orbital Energies and Occupations

         #    Occupation            Energy/Eh            Energy/eV
      -------------------------------------------------------------
         1        2.0000           -0.8180128             -22.2593
       ...           ...                  ...                  ...
         4        2.0000           -0.6927397             -18.8504
         5        2.0000           -0.6609022             -17.9841
         6        2.0000           -0.6465126             -17.5925
         7        2.0000           -0.6335449             -17.2396
         8        2.0000           -0.5911787             -16.0868
         9        2.0000           -0.5728685             -15.5885
        10        2.0000           -0.5479614             -14.9108
        11        2.0000           -0.5280508             -14.3690
        12        2.0000           -0.5186742             -14.1138
        13        2.0000           -0.4896765             -13.3248
        14        2.0000           -0.4833941             -13.1538
        15        2.0000           -0.4700349             -12.7903
        16        2.0000           -0.4441187             -12.0851 (HOMO)
        17                         -0.4077769             -11.0962 (LUMO)
        18                         -0.0343647              -0.9351
        19                          0.0481401               1.3100
        20                          0.0641725               1.7462
        21                          0.0890261               2.4225
        22                          0.1087888               2.9603
        23                          0.1835481               4.9946
        24                          0.2451849               6.6718
        25                          0.2605981               7.0912
        26                          0.2648603               7.2072
        27                          0.2765632               7.5257
      -------------------------------------------------------------
                  HL-Gap            0.0363417 Eh            0.9889 eV

     #   Z          covCN         q      C6AA      α(0)
     1   6 C        3.677     0.036    20.184     6.436
     2   6 C        3.746    -0.165    23.772     6.955
     3   8 O        1.829     0.118    13.039     4.876
     4   1 H        0.920     0.315     0.667     1.278
     5   1 H        0.920     0.307     0.689     1.298
     6   8 O        0.982    -0.293    19.594     5.938
     7   1 H        0.924     0.155     1.361     1.824
     8   1 H        0.918     0.241     0.914     1.496
     9   1 H        0.925     0.150     1.394     1.846
    10   8 O        1.610    -0.626    25.816     6.858
    11   1 H        0.805     0.377     0.529     1.143
    12   1 H        0.805     0.386     0.511     1.122

Wiberg/Mayer (AO) data.
largest (>0.10) Wiberg bond orders for each atom

     #   Z sym  total        # sym  WBO       # sym  WBO       # sym  WBO
 ---------------------------------------------------------------------------
     1   6 C    3.899 --     2 C    1.118     3 O    1.109     5 H    0.731
                             4 H    0.717     6 O    0.175
     2   6 C    3.964 --     1 C    1.118     9 H    0.949     7 H    0.911
                             8 H    0.716     3 O    0.115     6 O    0.110
     3   8 O    2.678 --     6 O    1.285     1 C    1.109     2 C    0.115
     4   1 H    0.901 --     1 C    0.717
     5   1 H    0.906 --     1 C    0.731
     6   8 O    1.889 --     3 O    1.285     1 C    0.175     2 C    0.110
     7   1 H    0.976 --     2 C    0.911
     8   1 H    0.942 --     2 C    0.716    10 O    0.100
     9   1 H    0.978 --     2 C    0.949
    10   8 O    1.960 --    11 H    0.854    12 H    0.847     8 H    0.100
    11   1 H    0.858 --    10 O    0.854
    12   1 H    0.851 --    10 O    0.847
 ---------------------------------------------------------------------------

molecular dipole:
                 x           y           z       tot (Debye)
 q only:      -16.340      -8.174       3.210
   full:      -16.404      -8.171       3.045      47.220

 projected vibrational frequencies (cm⁻¹)
eigval :       -0.00    -0.00    -0.00     0.00     0.00     0.00
eigval :       43.29    81.54   143.11   202.37   252.93   312.23
eigval :      330.77   455.32   474.29   624.00   662.91   880.85
eigval :      914.20   977.50  1000.13  1037.48  1099.99  1202.39
eigval :     1263.64  1291.90  1320.89  1380.57  1399.04  2463.72
eigval :     2594.96  2711.19  2997.19  3092.87  3549.37  3561.09

   temp. (K)  partition function   enthalpy   heat capacity  entropy
                                   cal/mol     cal/K/mol   cal/K/mol   J/K/mol
 298.15  VIB   176.                 3257.777     19.769     20.192
         ROT  0.154E+06              888.752      2.981     26.715
         INT  0.271E+08             4146.530     22.750     46.907
         TR   0.680E+27             1481.254      4.968     39.001
         TOT                        5627.7836    27.7185    85.9075   359.4372

       T/K    H(0)-H(T)+PV         H(T)/Eh          T*S/Eh         G(T)/Eh
   ------------------------------------------------------------------------
    298.15    0.896844E-02    0.962717E-01    0.408174E-01    0.554543E-01
   ------------------------------------------------------------------------

         :::::::::::::::::::::::::::::::::::::::::::::::::::::
         ::                  THERMODYNAMIC                  ::
         :::::::::::::::::::::::::::::::::::::::::::::::::::::
         :: total free energy         -19.439273978342 Eh   ::
         ::.................................................::
         :: total energy              -19.494728276838 Eh   ::
         :: zero point energy           0.087303300447 Eh   ::
         :: G(RRHO) w/o ZPVE           -0.031849001951 Eh   ::
         :: G(RRHO) contrib.            0.055454298496 Eh   ::
         :::::::::::::::::::::::::::::::::::::::::::::::::::::

           -------------------------------------------------
          | TOTAL ENERGY              -19.494728276838 Eh   |
          | TOTAL ENTHALPY            -19.398456532324 Eh   |
          | TOTAL FREE ENERGY         -19.439273978342 Eh   |
          | GRADIENT NORM               0.000754346230 Eh/α |
          | HOMO-LUMO GAP               0.988909250782 eV   |
           -------------------------------------------------

 * finished run on 2025/10/18 at 02:43:37.067
normal termination of xtb
