   * xtb version 6.7.1 (edcfbbe) compiled by 'albert@albert-system' on 2024-07-22

   ID    Z sym.   atoms
    1    6 C      1, 2
    2    8 O      3, 6, 10
    3    1 H      4, 5, 7-9, 11, 12

          program call               : xtb tb_lite_results_shiftn0p2_gp348_b0_rot90_complex.xyz --ohess --chrg 1 --alpb water
      * Solvation model:               ALPB
        Solvent                        water
        Solvent mass                       1.8000E+01 g/mol
          :  Hamiltonian                  GFN2-xTB          :
 * total energy  :   -19.4148449 Eh     change        0.5002327E-09 Eh
 * total energy  :   -19.4467172 Eh     change       -0.3187226E-01 Eh
 * total energy  :   -19.4540556 Eh     change       -0.7338419E-02 Eh
 * total energy  :   -19.4639477 Eh     change       -0.9892089E-02 Eh
 * total energy  :   -19.4671013 Eh     change       -0.3153587E-02 Eh
 * total energy  :   -19.4735870 Eh     change       -0.6485702E-02 Eh
 * total energy  :   -19.4767434 Eh     change       -0.3156367E-02 Eh
 * total energy  :   -19.4781773 Eh     change       -0.1433931E-02 Eh
 * total energy  :   -19.4791716 Eh     change       -0.9943077E-03 Eh
 * total energy  :   -19.4800517 Eh     change       -0.8801524E-03 Eh
 * total energy  :   -19.4942693 Eh     change       -0.4878713E-04 Eh
 * total energy  :   -19.4942931 Eh     change       -0.2377444E-04 Eh
 * total energy  :   -19.4943232 Eh     change       -0.3010582E-04 Eh
 * total energy  :   -19.4943437 Eh     change       -0.2054329E-04 Eh
 * total energy  :   -19.4943752 Eh     change       -0.3145681E-04 Eh
 * total energy  :   -19.4943825 Eh     change       -0.7334064E-05 Eh
 * total energy  :   -19.4943913 Eh     change       -0.8745725E-05 Eh
 * total energy  :   -19.4943963 Eh     change       -0.5038398E-05 Eh
 * total energy  :   -19.4943995 Eh     change       -0.3203659E-05 Eh
   *** GEOMETRY OPTIMIZATION CONVERGED AFTER 88 ITERATIONS ***

 final structure:
================
12
 xtb: 6.7.1 (edcfbbe)
C           -6.86980945043119       -4.11967166345886        1.14967979540249
C           -8.26936062941017       -3.91454845611307        1.53800765218822
O           -6.33215795485077       -5.36593294669995        1.22724646398321
H           -6.61221771617821       -3.75503454666949        0.12363637567312
H           -6.13645038341220       -3.46890966336412        1.68884739670787
O           -7.06580520258237       -6.32283512195202        1.64626824758191
H           -8.94869491563342       -4.25222872411787        0.69760163470367
H           -8.55782659642407       -4.57105014119546        2.36212451578407
H           -8.50278541152251       -2.87192261685853        1.71940073172559
O           -9.96153193230765       -4.67268551899115       -0.57963477667349
H          -10.10908479889176       -5.62325859111791       -0.65430191902441
H          -10.82064740874415       -4.24449769342850       -0.47997907772657

          :  Hamiltonian                  GFN2-xTB          :
         :: gradient norm              0.000868001595 Eh/a0 ::
         :: HOMO-LUMO gap              0.987425181355 eV    ::
         :: SCC energy               -19.636203679601 Eh    ::
         :: -> dispersion             -0.003731670421 Eh    ::
         :: -> Gsolv                  -0.128321313521 Eh    ::
         :: repulsion energy           0.141804163295 Eh    ::

    * Orbital Energies and Occupations

         #    Occupation            Energy/Eh            Energy/eV
      -------------------------------------------------------------
         1        2.0000           -0.8174035             -22.2427
       ...           ...                  ...                  ...
         4        2.0000           -0.6939535             -18.8834
         5        2.0000           -0.6601220             -17.9628
         6        2.0000           -0.6465970             -17.5948
         7        2.0000           -0.6330968             -17.2274
         8        2.0000           -0.5914762             -16.0949
         9        2.0000           -0.5740524             -15.6208
        10        2.0000           -0.5488243             -14.9343
        11        2.0000           -0.5290115             -14.3951
        12        2.0000           -0.5188483             -14.1186
        13        2.0000           -0.4904416             -13.3456
        14        2.0000           -0.4844483             -13.1825
        15        2.0000           -0.4697135             -12.7816
        16        2.0000           -0.4438599             -12.0780 (HOMO)
        17                         -0.4075728             -11.0906 (LUMO)
        18                         -0.0359596              -0.9785
        19                          0.0464875               1.2650
        20                          0.0630643               1.7161
        21                          0.0888994               2.4191
        22                          0.1099479               2.9918
        23                          0.1829552               4.9785
        24                          0.2468397               6.7169
        25                          0.2600415               7.0761
        26                          0.2622594               7.1364
        27                          0.2760531               7.5118
      -------------------------------------------------------------
                  HL-Gap            0.0362871 Eh            0.9874 eV

     #   Z          covCN         q      C6AA      α(0)
     1   6 C        3.678     0.036    20.182     6.436
     2   6 C        3.745    -0.165    23.774     6.955
     3   8 O        1.829     0.112    13.106     4.889
     4   1 H        0.920     0.307     0.687     1.297
     5   1 H        0.920     0.313     0.672     1.282
     6   8 O        0.981    -0.299    19.709     5.955
     7   1 H        0.917     0.244     0.900     1.484
     8   1 H        0.924     0.154     1.362     1.825
     9   1 H        0.925     0.152     1.377     1.835
    10   8 O        1.610    -0.621    25.696     6.842
    11   1 H        0.805     0.379     0.524     1.137
    12   1 H        0.805     0.387     0.510     1.121

Wiberg/Mayer (AO) data.
largest (>0.10) Wiberg bond orders for each atom

     #   Z sym  total        # sym  WBO       # sym  WBO       # sym  WBO
 ---------------------------------------------------------------------------
     1   6 C    3.900 --     2 C    1.121     3 O    1.107     4 H    0.730
                             5 H    0.719     6 O    0.172
     2   6 C    3.965 --     1 C    1.121     9 H    0.945     8 H    0.914
                             7 H    0.707     3 O    0.118     6 O    0.114
     3   8 O    2.673 --     6 O    1.277     1 C    1.107     2 C    0.118
     4   1 H    0.906 --     1 C    0.730
     5   1 H    0.902 --     1 C    0.719
     6   8 O    1.882 --     3 O    1.277     1 C    0.172     2 C    0.114
     7   1 H    0.940 --     2 C    0.707    10 O    0.107
     8   1 H    0.976 --     2 C    0.914
     9   1 H    0.977 --     2 C    0.945
    10   8 O    1.971 --    11 H    0.852    12 H    0.847     7 H    0.107
    11   1 H    0.856 --    10 O    0.852
    12   1 H    0.850 --    10 O    0.847
 ---------------------------------------------------------------------------

molecular dipole:
                 x           y           z       tot (Debye)
 q only:      -15.241      -6.625       1.365
   full:      -15.359      -6.782       1.372      42.817

 projected vibrational frequencies (cm⁻¹)
eigval :       -0.00    -0.00    -0.00    -0.00     0.00     0.00
eigval :      -85.45    48.37    96.17   205.51   248.86   310.25
eigval :      319.59   429.09   485.37   624.64   663.62   889.19
eigval :      911.23   979.47   999.80  1038.79  1105.62  1197.75
eigval :     1258.68  1285.74  1311.34  1380.56  1394.89  2428.12
eigval :     2601.29  2718.22  2997.05  3089.88  3533.30  3543.40

   temp. (K)  partition function   enthalpy   heat capacity  entropy
                                   cal/mol     cal/K/mol   cal/K/mol   J/K/mol
 298.15  VIB   71.5                 2840.087     18.080     17.271
         ROT  0.158E+06              888.752      2.981     26.767
         INT  0.113E+08             3728.840     21.061     44.038
         TR   0.680E+27             1481.254      4.968     39.001
         TOT                        5210.0936    26.0294    83.0386   347.4333

       T/K    H(0)-H(T)+PV         H(T)/Eh          T*S/Eh         G(T)/Eh
   ------------------------------------------------------------------------
    298.15    0.830281E-02    0.950915E-01    0.394543E-01    0.556372E-01
   ------------------------------------------------------------------------

         :::::::::::::::::::::::::::::::::::::::::::::::::::::
         ::                  THERMODYNAMIC                  ::
         :::::::::::::::::::::::::::::::::::::::::::::::::::::
         :: total free energy         -19.438762357465 Eh   ::
         ::.................................................::
         :: total energy              -19.494399515254 Eh   ::
         :: zero point energy           0.086788643453 Eh   ::
         :: G(RRHO) w/o ZPVE           -0.031151485665 Eh   ::
         :: G(RRHO) contrib.            0.055637157788 Eh   ::
         :::::::::::::::::::::::::::::::::::::::::::::::::::::

           -------------------------------------------------
          | TOTAL ENERGY              -19.494399515254 Eh   |
          | TOTAL ENTHALPY            -19.399308059175 Eh   |
          | TOTAL FREE ENERGY         -19.438762357465 Eh   |
          | GRADIENT NORM               0.000867859167 Eh/α |
          | HOMO-LUMO GAP               0.987421381022 eV   |
           -------------------------------------------------

 * finished run on 2025/10/18 at 02:43:30.084
normal termination of xtb
