   * xtb version 6.7.1 (edcfbbe) compiled by 'albert@albert-system' on 2024-07-22

   ID    Z sym.   atoms
    1    6 C      1, 2
    2    8 O      3, 6, 10
    3    1 H      4, 5, 7-9, 11, 12

          program call               : xtb tb_lite_results_shiftn0p25_gp348_b0_rot90_complex.xyz --ohess --chrg 1 --alpb water
      * Solvation model:               ALPB
        Solvent                        water
        Solvent mass                       1.8000E+01 g/mol
          :  Hamiltonian                  GFN2-xTB          :
 * total energy  :   -19.4146415 Eh     change       -0.3675211E-09 Eh
 * total energy  :   -19.4463499 Eh     change       -0.3170842E-01 Eh
 * total energy  :   -19.4531370 Eh     change       -0.6787018E-02 Eh
 * total energy  :   -19.4632833 Eh     change       -0.1014637E-01 Eh
 * total energy  :   -19.4663938 Eh     change       -0.3110503E-02 Eh
 * total energy  :   -19.4730027 Eh     change       -0.6608899E-02 Eh
 * total energy  :   -19.4770396 Eh     change       -0.4036905E-02 Eh
 * total energy  :   -19.4776671 Eh     change       -0.6274336E-03 Eh
 * total energy  :   -19.4794211 Eh     change       -0.1753994E-02 Eh
 * total energy  :   -19.4791370 Eh     change        0.2840407E-03 Eh
 * total energy  :   -19.4946732 Eh     change       -0.3581348E-05 Eh
 * total energy  :   -19.4946811 Eh     change       -0.7886410E-05 Eh
 * total energy  :   -19.4946917 Eh     change       -0.1064623E-04 Eh
 * total energy  :   -19.4947020 Eh     change       -0.1030983E-04 Eh
 * total energy  :   -19.4947112 Eh     change       -0.9188867E-05 Eh
 * total energy  :   -19.4947155 Eh     change       -0.4283526E-05 Eh
 * total energy  :   -19.4947281 Eh     change       -0.1257806E-04 Eh
 * total energy  :   -19.4947333 Eh     change       -0.5215404E-05 Eh
 * total energy  :   -19.4947365 Eh     change       -0.3196919E-05 Eh
   *** GEOMETRY OPTIMIZATION CONVERGED AFTER 96 ITERATIONS ***

 final structure:
================
12
 xtb: 6.7.1 (edcfbbe)
C           -6.90416466164373       -4.38069581528613        1.32572598972779
C           -8.24741063288400       -3.81549807863164        1.50215784015065
O           -6.69001442983719       -5.69051181564439        1.61880707700797
H           -6.47152335339457       -4.24128222136600        0.30314189581043
H           -6.09111220610026       -3.83754800382672        1.86953535274815
O           -7.66381525906173       -6.38840292524337        2.05426343182074
H           -8.89163535073977       -4.13758555924240        0.63200678354663
H           -8.75764999851211       -4.25428383683042        2.36259451596003
H           -8.24724205518804       -2.73214527720125        1.51490838727301
O           -9.66865561914135       -4.62429483754203       -0.79341187269198
H          -10.39430602045654       -5.23875510659573       -0.63775202485980
H          -10.01407420816530       -3.86933955183280       -1.28531299085186

          :  Hamiltonian                  GFN2-xTB          :
         :: gradient norm              0.000616535688 Eh/a0 ::
         :: HOMO-LUMO gap              0.988559468144 eV    ::
         :: SCC energy               -19.636990366892 Eh    ::
         :: -> dispersion             -0.003769649155 Eh    ::
         :: -> Gsolv                  -0.128516256255 Eh    ::
         :: repulsion energy           0.142253880966 Eh    ::

    * Orbital Energies and Occupations

         #    Occupation            Energy/Eh            Energy/eV
      -------------------------------------------------------------
         1        2.0000           -0.8177661             -22.2525
       ...           ...                  ...                  ...
         4        2.0000           -0.6929941             -18.8573
         5        2.0000           -0.6606593             -17.9775
         6        2.0000           -0.6464941             -17.5920
         7        2.0000           -0.6333747             -17.2350
         8        2.0000           -0.5910201             -16.0825
         9        2.0000           -0.5730966             -15.5948
        10        2.0000           -0.5483142             -14.9204
        11        2.0000           -0.5280060             -14.3678
        12        2.0000           -0.5186799             -14.1140
        13        2.0000           -0.4893957             -13.3171
        14        2.0000           -0.4838938             -13.1674
        15        2.0000           -0.4698141             -12.7843
        16        2.0000           -0.4439097             -12.0794 (HOMO)
        17                         -0.4075809             -11.0908 (LUMO)
        18                         -0.0341054              -0.9281
        19                          0.0480234               1.3068
        20                          0.0638533               1.7375
        21                          0.0904478               2.4612
        22                          0.1086263               2.9559
        23                          0.1837721               5.0007
        24                          0.2464258               6.7056
        25                          0.2613818               7.1126
        26                          0.2649712               7.2102
        27                          0.2763286               7.5193
      -------------------------------------------------------------
                  HL-Gap            0.0363288 Eh            0.9886 eV

     #   Z          covCN         q      C6AA      α(0)
     1   6 C        3.678     0.036    20.186     6.436
     2   6 C        3.746    -0.165    23.776     6.955
     3   8 O        1.829     0.117    13.040     4.877
     4   1 H        0.920     0.308     0.687     1.296
     5   1 H        0.920     0.313     0.672     1.282
     6   8 O        0.982    -0.293    19.608     5.940
     7   1 H        0.918     0.242     0.910     1.492
     8   1 H        0.924     0.153     1.370     1.830
     9   1 H        0.925     0.151     1.388     1.842
    10   8 O        1.610    -0.626    25.815     6.857
    11   1 H        0.805     0.378     0.527     1.140
    12   1 H        0.805     0.387     0.509     1.121

Wiberg/Mayer (AO) data.
largest (>0.10) Wiberg bond orders for each atom

     #   Z sym  total        # sym  WBO       # sym  WBO       # sym  WBO
 ---------------------------------------------------------------------------
     1   6 C    3.899 --     2 C    1.118     3 O    1.108     4 H    0.730
                             5 H    0.720     6 O    0.174
     2   6 C    3.964 --     1 C    1.118     9 H    0.948     8 H    0.914
                             7 H    0.714     3 O    0.116     6 O    0.111
     3   8 O    2.677 --     6 O    1.285     1 C    1.108     2 C    0.116
     4   1 H    0.905 --     1 C    0.730
     5   1 H    0.902 --     1 C    0.720
     6   8 O    1.889 --     3 O    1.285     1 C    0.174     2 C    0.111
     7   1 H    0.942 --     2 C    0.714    10 O    0.102
     8   1 H    0.977 --     2 C    0.914
     9   1 H    0.977 --     2 C    0.948
    10   8 O    1.962 --    11 H    0.853    12 H    0.847     7 H    0.102
    11   1 H    0.857 --    10 O    0.853
    12   1 H    0.850 --    10 O    0.847
 ---------------------------------------------------------------------------

molecular dipole:
                 x           y           z       tot (Debye)
 q only:      -14.751      -6.564       1.071
   full:      -14.906      -6.618       1.030      41.537

 projected vibrational frequencies (cm⁻¹)
eigval :       -0.00    -0.00    -0.00     0.00     0.00     0.00
eigval :       35.18    69.32   104.67   205.36   252.90   312.69
eigval :      321.85   440.40   467.80   616.86   658.63   875.30
eigval :      912.41   975.77   998.95  1038.98  1103.27  1201.37
eigval :     1262.40  1289.69  1316.65  1380.35  1399.67  2458.57
eigval :     2598.25  2714.34  3000.49  3093.24  3544.77  3560.43

   temp. (K)  partition function   enthalpy   heat capacity  entropy
                                   cal/mol     cal/K/mol   cal/K/mol   J/K/mol
 298.15  VIB   311.                 3347.482     19.627     21.102
         ROT  0.154E+06              888.752      2.981     26.722
         INT  0.480E+08             4236.235     22.608     47.824
         TR   0.680E+27             1481.254      4.968     39.001
         TOT                        5717.4886    27.5762    86.8243   363.2730

       T/K    H(0)-H(T)+PV         H(T)/Eh          T*S/Eh         G(T)/Eh
   ------------------------------------------------------------------------
    298.15    0.911140E-02    0.961614E-01    0.412530E-01    0.549084E-01
   ------------------------------------------------------------------------

         :::::::::::::::::::::::::::::::::::::::::::::::::::::
         ::                  THERMODYNAMIC                  ::
         :::::::::::::::::::::::::::::::::::::::::::::::::::::
         :: total free energy         -19.439828079399 Eh   ::
         ::.................................................::
         :: total energy              -19.494736490842 Eh   ::
         :: zero point energy           0.087050050203 Eh   ::
         :: G(RRHO) w/o ZPVE           -0.032141638760 Eh   ::
         :: G(RRHO) contrib.            0.054908411444 Eh   ::
         :::::::::::::::::::::::::::::::::::::::::::::::::::::

           -------------------------------------------------
          | TOTAL ENERGY              -19.494736490842 Eh   |
          | TOTAL ENTHALPY            -19.398575042660 Eh   |
          | TOTAL FREE ENERGY         -19.439828079399 Eh   |
          | GRADIENT NORM               0.000616661302 Eh/α |
          | HOMO-LUMO GAP               0.988557429963 eV   |
           -------------------------------------------------

 * finished run on 2025/10/18 at 02:43:35.359
normal termination of xtb
