   * xtb version 6.7.1 (edcfbbe) compiled by 'albert@albert-system' on 2024-07-22

   ID    Z sym.   atoms
    1    6 C      1, 2
    2    8 O      3, 6
    3    1 H      4, 5, 7-9

          program call               : xtb tb_lite_results_shiftn0p2_gp348_b0_rot90_solute.xyz --ohess --chrg 1
          :  Hamiltonian                  GFN2-xTB          :
 * total energy  :   -14.2150354 Eh     change       -0.3239897E-10 Eh
 * total energy  :   -14.2558008 Eh     change       -0.4076539E-01 Eh
 * total energy  :   -14.2325850 Eh     change        0.2321584E-01 Eh
 * total energy  :   -14.2696545 Eh     change       -0.3706946E-01 Eh
 * total energy  :   -14.2727101 Eh     change       -0.3055662E-02 Eh
 * total energy  :   -14.2766523 Eh     change       -0.3942207E-02 Eh
 * total energy  :   -14.2759170 Eh     change        0.7353355E-03 Eh
 * total energy  :   -14.2822972 Eh     change       -0.6380203E-02 Eh
 * total energy  :   -14.2836195 Eh     change       -0.1322295E-02 Eh
 * total energy  :   -14.2840959 Eh     change       -0.4763854E-03 Eh
 * total energy  :   -14.2851033 Eh     change       -0.2897411E-03 Eh
 * total energy  :   -14.2852622 Eh     change       -0.1589446E-03 Eh
 * total energy  :   -14.2853556 Eh     change       -0.9338365E-04 Eh
 * total energy  :   -14.2854616 Eh     change       -0.1059299E-03 Eh
 * total energy  :   -14.2855542 Eh     change       -0.9265145E-04 Eh
 * total energy  :   -14.2856149 Eh     change       -0.6069776E-04 Eh
 * total energy  :   -14.2856353 Eh     change       -0.2040943E-04 Eh
 * total energy  :   -14.2856502 Eh     change       -0.1492040E-04 Eh
 * total energy  :   -14.2856536 Eh     change       -0.3394078E-05 Eh
   *** GEOMETRY OPTIMIZATION CONVERGED AFTER 21 ITERATIONS ***

 final structure:
================
9
 xtb: 6.7.1 (edcfbbe)
C           -6.97965704852351       -4.49649627212161        1.53586525467739
C           -8.01869557277874       -3.43008645733325        1.51120746327017
O           -7.21806315241050       -5.60184489366976        0.74565067535353
H           -5.95721679729515       -4.15400603410106        1.25276988693567
H           -6.76499267615758       -4.90802093262132        2.54963445529413
O           -8.25092813012970       -5.64140186455410        0.08209255377530
H           -8.18485132522495       -3.07241812368294        0.48642802973587
H           -8.99411391664262       -3.82931858313545        1.81980336333817
H           -7.75069971816519       -2.59367602568927        2.15006837851077

          :  Hamiltonian                  GFN2-xTB          :
         :: gradient norm              0.000887827914 Eh/a0 ::
         :: HOMO-LUMO gap              1.434290013142 eV    ::
         :: SCC energy               -14.396481665549 Eh    ::
         :: -> dispersion             -0.002516567850 Eh    ::
         :: repulsion energy           0.110828035185 Eh    ::

    * Orbital Energies and Occupations

         #    Occupation            Energy/Eh            Energy/eV
      -------------------------------------------------------------
         1        2.0000           -1.0585144             -28.8036
         2        2.0000           -1.0059962             -27.3745
         3        2.0000           -0.9376109             -25.5137
         4        2.0000           -0.9018314             -24.5401
         5        2.0000           -0.8653474             -23.5473
         6        2.0000           -0.8614905             -23.4423
         7        2.0000           -0.8098621             -22.0375
         8        2.0000           -0.7662516             -20.8508
         9        2.0000           -0.7371710             -20.0594
        10        2.0000           -0.6997345             -19.0407
        11        2.0000           -0.6933358             -18.8666
        12        2.0000           -0.6886690             -18.7396 (HOMO)
        13                         -0.6359590             -17.3053 (LUMO)
        14                         -0.2250789              -6.1247
        15                         -0.1483035              -4.0355
        16                         -0.1457467              -3.9660
        17                         -0.1298229              -3.5327
        18                         -0.0397990              -1.0830
        19                          0.0012969               0.0353
        20                          0.0255222               0.6945
        21                          0.0405416               1.1032
      -------------------------------------------------------------
                  HL-Gap            0.0527100 Eh            1.4343 eV

     #   Z          covCN         q      C6AA      α(0)
     1   6 C        3.680     0.033    20.227     6.442
     2   6 C        3.750    -0.145    23.354     6.892
     3   8 O        1.831     0.196    12.173     4.712
     4   1 H        0.921     0.241     0.915     1.496
     5   1 H        0.921     0.241     0.914     1.495
     6   8 O        0.987    -0.027    15.438     5.271
     7   1 H        0.923     0.162     1.312     1.791
     8   1 H        0.923     0.163     1.310     1.790
     9   1 H        0.925     0.136     1.489     1.908

Wiberg/Mayer (AO) data.
largest (>0.10) Wiberg bond orders for each atom

     #   Z sym  total        # sym  WBO       # sym  WBO       # sym  WBO
 ---------------------------------------------------------------------------
     1   6 C    3.901 --     3 O    1.065     2 C    1.065     4 H    0.785
                             5 H    0.784     6 O    0.184
     2   6 C    3.962 --     1 C    1.065     9 H    0.964     7 H    0.890
                             8 H    0.889
     3   8 O    2.758 --     6 O    1.500     1 C    1.065
     4   1 H    0.942 --     1 C    0.785
     5   1 H    0.942 --     1 C    0.784
     6   8 O    2.033 --     3 O    1.500     1 C    0.184
     7   1 H    0.974 --     2 C    0.890
     8   1 H    0.974 --     2 C    0.889
     9   1 H    0.981 --     2 C    0.964
 ---------------------------------------------------------------------------

molecular dipole:
                 x           y           z       tot (Debye)
 q only:      -13.553      -8.040       2.947
   full:      -13.429      -8.099       2.991      40.579

 projected vibrational frequencies (cm⁻¹)
eigval :       -0.00    -0.00    -0.00     0.00     0.00     0.00
eigval :      183.83   249.03   320.29   648.52   667.44   908.86
eigval :      910.31  1012.03  1015.90  1085.28  1152.24  1240.80
eigval :     1336.56  1339.40  1384.26  1412.12  2700.54  2780.39
eigval :     2919.06  2955.12  3079.87

   temp. (K)  partition function   enthalpy   heat capacity  entropy
                                   cal/mol     cal/K/mol   cal/K/mol   J/K/mol
 298.15  VIB   3.56                 1255.340      9.964      6.736
         ROT  0.358E+05              888.752      2.981     23.821
         INT  0.128E+06             2144.093     12.945     30.558
         TR   0.462E+27             1481.254      4.968     38.230
         TOT                        3625.3466    17.9130    68.7878   287.8083

       T/K    H(0)-H(T)+PV         H(T)/Eh          T*S/Eh         G(T)/Eh
   ------------------------------------------------------------------------
    298.15    0.577736E-02    0.725319E-01    0.326833E-01    0.398486E-01
   ------------------------------------------------------------------------

         :::::::::::::::::::::::::::::::::::::::::::::::::::::
         ::                  THERMODYNAMIC                  ::
         :::::::::::::::::::::::::::::::::::::::::::::::::::::
         :: total free energy         -14.245805049783 Eh   ::
         ::.................................................::
         :: total energy              -14.285653630419 Eh   ::
         :: zero point energy           0.066754539165 Eh   ::
         :: G(RRHO) w/o ZPVE           -0.026905958529 Eh   ::
         :: G(RRHO) contrib.            0.039848580636 Eh   ::
         :::::::::::::::::::::::::::::::::::::::::::::::::::::

           -------------------------------------------------
          | TOTAL ENERGY              -14.285653630419 Eh   |
          | TOTAL ENTHALPY            -14.213121733695 Eh   |
          | TOTAL FREE ENERGY         -14.245805049783 Eh   |
          | GRADIENT NORM               0.000889732213 Eh/α |
          | HOMO-LUMO GAP               1.434311321475 eV   |
           -------------------------------------------------

 * finished run on 2025/10/18 at 02:43:30.568
normal termination of xtb
