   * xtb version 6.7.1 (edcfbbe) compiled by 'albert@albert-system' on 2024-07-22

   ID    Z sym.   atoms
    1    6 C      1, 2
    2    8 O      3, 6, 10
    3    1 H      4, 5, 7-9, 11, 12

          program call               : xtb tb_lite_results_shiftn0p25_gp348_b0_rot180_complex.xyz --ohess --chrg 1 --alpb water
      * Solvation model:               ALPB
        Solvent                        water
        Solvent mass                       1.8000E+01 g/mol
          :  Hamiltonian                  GFN2-xTB          :
 * total energy  :   -19.4196681 Eh     change       -0.9684875E-09 Eh
 * total energy  :   -19.4513639 Eh     change       -0.3169575E-01 Eh
 * total energy  :   -19.4584844 Eh     change       -0.7120462E-02 Eh
 * total energy  :   -19.4683777 Eh     change       -0.9893327E-02 Eh
 * total energy  :   -19.4710490 Eh     change       -0.2671275E-02 Eh
 * total energy  :   -19.4763788 Eh     change       -0.5329810E-02 Eh
 * total energy  :   -19.4803273 Eh     change       -0.3948509E-02 Eh
 * total energy  :   -19.4813503 Eh     change       -0.1022997E-02 Eh
 * total energy  :   -19.4809036 Eh     change        0.4467025E-03 Eh
 * total energy  :   -19.4825676 Eh     change       -0.1664043E-02 Eh
 * total energy  :   -19.4946853 Eh     change       -0.2448809E-04 Eh
 * total energy  :   -19.4946924 Eh     change       -0.7156118E-05 Eh
 * total energy  :   -19.4946991 Eh     change       -0.6622283E-05 Eh
 * total energy  :   -19.4947047 Eh     change       -0.5647806E-05 Eh
 * total energy  :   -19.4947119 Eh     change       -0.7174787E-05 Eh
 * total energy  :   -19.4947217 Eh     change       -0.9806336E-05 Eh
 * total energy  :   -19.4947283 Eh     change       -0.6599737E-05 Eh
 * total energy  :   -19.4947308 Eh     change       -0.2537704E-05 Eh
 * total energy  :   -19.4947322 Eh     change       -0.1344171E-05 Eh
   *** GEOMETRY OPTIMIZATION CONVERGED AFTER 66 ITERATIONS ***

 final structure:
================
12
 xtb: 6.7.1 (edcfbbe)
C           -7.03056459034209       -4.55738583539622        1.49198431434985
C           -8.05208632964343       -3.63419783504881        0.98152346527743
O           -6.25103841181723       -5.23746447235735        0.61009092280187
H           -6.30589948381134       -4.10492619375698        2.21464765407279
H           -7.41939061668412       -5.33875336767218        2.19268229140120
O           -6.42181511562124       -5.04013251229292       -0.63735078889949
H           -7.71425934151177       -3.12178261791538        0.07773722940144
H           -8.92994187030219       -4.24228700552261        0.61466490430466
H           -8.42270109663632       -2.95600855705522        1.74087222612623
O          -10.15080070717224       -5.35544344410864        0.22105351552618
H          -10.39377939216046       -5.33758569117422       -0.71153472789656
H          -10.94932683915395       -5.21137550147764        0.74329337468938

          :  Hamiltonian                  GFN2-xTB          :
         :: gradient norm              0.000536973489 Eh/a0 ::
         :: HOMO-LUMO gap              0.986628051569 eV    ::
         :: SCC energy               -19.636845469002 Eh    ::
         :: -> dispersion             -0.003790365291 Eh    ::
         :: -> Gsolv                  -0.128469910176 Eh    ::
         :: repulsion energy           0.142113296356 Eh    ::

    * Orbital Energies and Occupations

         #    Occupation            Energy/Eh            Energy/eV
      -------------------------------------------------------------
         1        2.0000           -0.8177941             -22.2533
       ...           ...                  ...                  ...
         4        2.0000           -0.6927366             -18.8503
         5        2.0000           -0.6607257             -17.9793
         6        2.0000           -0.6464126             -17.5898
         7        2.0000           -0.6334037             -17.2358
         8        2.0000           -0.5909591             -16.0808
         9        2.0000           -0.5728978             -15.5893
        10        2.0000           -0.5480914             -14.9143
        11        2.0000           -0.5277289             -14.3602
        12        2.0000           -0.5186078             -14.1120
        13        2.0000           -0.4892756             -13.3139
        14        2.0000           -0.4835864             -13.1591
        15        2.0000           -0.4698969             -12.7865
        16        2.0000           -0.4439238             -12.0798 (HOMO)
        17                         -0.4076660             -11.0932 (LUMO)
        18                         -0.0338645              -0.9215
        19                          0.0481051               1.3090
        20                          0.0640929               1.7441
        21                          0.0905578               2.4642
        22                          0.1078253               2.9341
        23                          0.1837365               4.9997
        24                          0.2451269               6.6702
        25                          0.2614016               7.1131
        26                          0.2648373               7.2066
        27                          0.2760280               7.5111
      -------------------------------------------------------------
                  HL-Gap            0.0362578 Eh            0.9866 eV

     #   Z          covCN         q      C6AA      α(0)
     1   6 C        3.678     0.036    20.187     6.436
     2   6 C        3.746    -0.165    23.774     6.955
     3   8 O        1.829     0.119    13.027     4.874
     4   1 H        0.920     0.313     0.673     1.283
     5   1 H        0.920     0.308     0.687     1.296
     6   8 O        0.982    -0.291    19.575     5.935
     7   1 H        0.924     0.154     1.368     1.829
     8   1 H        0.918     0.241     0.913     1.494
     9   1 H        0.925     0.150     1.393     1.845
    10   8 O        1.610    -0.627    25.841     6.861
    11   1 H        0.805     0.378     0.528     1.141
    12   1 H        0.805     0.386     0.510     1.122

Wiberg/Mayer (AO) data.
largest (>0.10) Wiberg bond orders for each atom

     #   Z sym  total        # sym  WBO       # sym  WBO       # sym  WBO
 ---------------------------------------------------------------------------
     1   6 C    3.899 --     2 C    1.117     3 O    1.108     5 H    0.730
                             4 H    0.720     6 O    0.174
     2   6 C    3.964 --     1 C    1.117     9 H    0.949     7 H    0.912
                             8 H    0.716     3 O    0.115     6 O    0.111
     3   8 O    2.678 --     6 O    1.287     1 C    1.108     2 C    0.115
     4   1 H    0.902 --     1 C    0.720
     5   1 H    0.905 --     1 C    0.730
     6   8 O    1.891 --     3 O    1.287     1 C    0.174     2 C    0.111
     7   1 H    0.976 --     2 C    0.912
     8   1 H    0.942 --     2 C    0.716    10 O    0.100
     9   1 H    0.978 --     2 C    0.949
    10   8 O    1.959 --    11 H    0.854    12 H    0.847     8 H    0.100
    11   1 H    0.857 --    10 O    0.854
    12   1 H    0.851 --    10 O    0.847
 ---------------------------------------------------------------------------

molecular dipole:
                 x           y           z       tot (Debye)
 q only:      -15.950      -8.048       3.435
   full:      -16.073      -8.067       3.322      46.484

 projected vibrational frequencies (cm⁻¹)
eigval :       -0.00    -0.00    -0.00     0.00     0.00     0.00
eigval :       41.82    73.60   123.28   202.89   251.56   312.74
eigval :      315.01   435.25   468.26   620.88   661.72   882.34
eigval :      913.36   976.97  1000.86  1040.43  1103.39  1202.88
eigval :     1264.28  1290.90  1318.51  1380.92  1402.01  2465.50
eigval :     2598.56  2713.11  2998.66  3092.79  3545.76  3558.56

   temp. (K)  partition function   enthalpy   heat capacity  entropy
                                   cal/mol     cal/K/mol   cal/K/mol   J/K/mol
 298.15  VIB   228.                 3318.716     19.791     20.780
         ROT  0.152E+06              888.752      2.981     26.697
         INT  0.348E+08             4207.468     22.772     47.477
         TR   0.680E+27             1481.254      4.968     39.001
         TOT                        5688.7218    27.7405    86.4774   361.8213

       T/K    H(0)-H(T)+PV         H(T)/Eh          T*S/Eh         G(T)/Eh
   ------------------------------------------------------------------------
    298.15    0.906556E-02    0.962209E-01    0.410882E-01    0.551327E-01
   ------------------------------------------------------------------------

         :::::::::::::::::::::::::::::::::::::::::::::::::::::
         ::                  THERMODYNAMIC                  ::
         :::::::::::::::::::::::::::::::::::::::::::::::::::::
         :: total free energy         -19.439599428158 Eh   ::
         ::.................................................::
         :: total energy              -19.494732171823 Eh   ::
         :: zero point energy           0.087155379666 Eh   ::
         :: G(RRHO) w/o ZPVE           -0.032022636001 Eh   ::
         :: G(RRHO) contrib.            0.055132743665 Eh   ::
         :::::::::::::::::::::::::::::::::::::::::::::::::::::

           -------------------------------------------------
          | TOTAL ENERGY              -19.494732171823 Eh   |
          | TOTAL ENTHALPY            -19.398511236856 Eh   |
          | TOTAL FREE ENERGY         -19.439599428158 Eh   |
          | GRADIENT NORM               0.000536103099 Eh/α |
          | HOMO-LUMO GAP               0.986625202768 eV   |
           -------------------------------------------------

 * finished run on 2025/10/18 at 02:43:39.268
normal termination of xtb
